  COHP#    atomMU    atomNU   distance   translation   ICOHP (at) eF    ICOHP (at) eF 
                                                          for spin 1       for spin 2 
      1       Ni1       Ni1    3.09159    -1  -1   0        -0.03208         -0.03400 
      1    Ni1_4s    Ni1_4s    3.09159    -1  -1   0        -0.03459         -0.03628 
      1    Ni1_4s Ni1_3d_xy    3.09159    -1  -1   0         0.00000          0.00003 
      1    Ni1_4s Ni1_3d_yz    3.09159    -1  -1   0         0.00007          0.00010 
      1    Ni1_4s Ni1_3d_z^2    3.09159    -1  -1   0         0.00010         -0.00017 
      1    Ni1_4s Ni1_3d_xz    3.09159    -1  -1   0         0.00035          0.00028 
      1    Ni1_4s Ni1_3d_x^2-y^2    3.09159    -1  -1   0         0.00051         -0.00052 
      1 Ni1_3d_xy    Ni1_4s    3.09159    -1  -1   0         0.00000          0.00003 
      1 Ni1_3d_xy Ni1_3d_xy    3.09159    -1  -1   0         0.00000          0.00007 
      1 Ni1_3d_xy Ni1_3d_yz    3.09159    -1  -1   0        -0.00000          0.00003 
      1 Ni1_3d_xy Ni1_3d_z^2    3.09159    -1  -1   0         0.00001          0.00000 
      1 Ni1_3d_xy Ni1_3d_xz    3.09159    -1  -1   0         0.00002          0.00007 
      1 Ni1_3d_xy Ni1_3d_x^2-y^2    3.09159    -1  -1   0         0.00001          0.00001 
      1 Ni1_3d_yz    Ni1_4s    3.09159    -1  -1   0         0.00007          0.00010 
      1 Ni1_3d_yz Ni1_3d_xy    3.09159    -1  -1   0        -0.00000          0.00003 
      1 Ni1_3d_yz Ni1_3d_yz    3.09159    -1  -1   0         0.00002          0.00007 
      1 Ni1_3d_yz Ni1_3d_z^2    3.09159    -1  -1   0         0.00001         -0.00002 
      1 Ni1_3d_yz Ni1_3d_xz    3.09159    -1  -1   0         0.00001          0.00001 
      1 Ni1_3d_yz Ni1_3d_x^2-y^2    3.09159    -1  -1   0        -0.00005          0.00006 
      1 Ni1_3d_z^2    Ni1_4s    3.09159    -1  -1   0         0.00010         -0.00017 
      1 Ni1_3d_z^2 Ni1_3d_xy    3.09159    -1  -1   0         0.00001          0.00000 
      1 Ni1_3d_z^2 Ni1_3d_yz    3.09159    -1  -1   0         0.00001         -0.00002 
      1 Ni1_3d_z^2 Ni1_3d_z^2    3.09159    -1  -1   0         0.00001         -0.00023 
      1 Ni1_3d_z^2 Ni1_3d_xz    3.09159    -1  -1   0        -0.00003         -0.00005 
      1 Ni1_3d_z^2 Ni1_3d_x^2-y^2    3.09159    -1  -1   0        -0.00016          0.00035 
      1 Ni1_3d_xz    Ni1_4s    3.09159    -1  -1   0         0.00035          0.00028 
      1 Ni1_3d_xz Ni1_3d_xy    3.09159    -1  -1   0         0.00002          0.00007 
      1 Ni1_3d_xz Ni1_3d_yz    3.09159    -1  -1   0         0.00001          0.00001 
      1 Ni1_3d_xz Ni1_3d_z^2    3.09159    -1  -1   0        -0.00003         -0.00005 
      1 Ni1_3d_xz Ni1_3d_xz    3.09159    -1  -1   0         0.00042          0.00070 
      1 Ni1_3d_xz Ni1_3d_x^2-y^2    3.09159    -1  -1   0         0.00015          0.00061 
      1 Ni1_3d_x^2-y^2    Ni1_4s    3.09159    -1  -1   0         0.00051         -0.00052 
      1 Ni1_3d_x^2-y^2 Ni1_3d_xy    3.09159    -1  -1   0         0.00001          0.00001 
      1 Ni1_3d_x^2-y^2 Ni1_3d_yz    3.09159    -1  -1   0        -0.00006          0.00006 
      1 Ni1_3d_x^2-y^2 Ni1_3d_z^2    3.09159    -1  -1   0        -0.00016          0.00035 
      1 Ni1_3d_x^2-y^2 Ni1_3d_xz    3.09159    -1  -1   0         0.00015          0.00061 
      1 Ni1_3d_x^2-y^2 Ni1_3d_x^2-y^2    3.09159    -1  -1   0         0.00008          0.00011 
      2       Ni1       Ni1    3.09159     0  -1   0        -0.03214         -0.03408 
      2    Ni1_4s    Ni1_4s    3.09159     0  -1   0        -0.03465         -0.03635 
      2    Ni1_4s Ni1_3d_xy    3.09159     0  -1   0         0.00034          0.00026 
      2    Ni1_4s Ni1_3d_yz    3.09159     0  -1   0         0.00001          0.00008 
      2    Ni1_4s Ni1_3d_z^2    3.09159     0  -1   0         0.00066         -0.00069 
      2    Ni1_4s Ni1_3d_xz    3.09159     0  -1   0         0.00001          0.00006 
      2    Ni1_4s Ni1_3d_x^2-y^2    3.09159     0  -1   0         0.00000          0.00000 
      2 Ni1_3d_xy    Ni1_4s    3.09159     0  -1   0         0.00034          0.00026 
      2 Ni1_3d_xy Ni1_3d_xy    3.09159     0  -1   0         0.00047          0.00083 
      2 Ni1_3d_xy Ni1_3d_yz    3.09159     0  -1   0        -0.00000         -0.00001 
      2 Ni1_3d_xy Ni1_3d_z^2    3.09159     0  -1   0         0.00016          0.00050 
      2 Ni1_3d_xy Ni1_3d_xz    3.09159     0  -1   0        -0.00000         -0.00001 
      2 Ni1_3d_xy Ni1_3d_x^2-y^2    3.09159     0  -1   0        -0.00003          0.00009 
      2 Ni1_3d_yz    Ni1_4s    3.09159     0  -1   0         0.00001          0.00008 
      2 Ni1_3d_yz Ni1_3d_xy    3.09159     0  -1   0        -0.00000         -0.00001 
      2 Ni1_3d_yz Ni1_3d_yz    3.09159     0  -1   0         0.00001          0.00007 
      2 Ni1_3d_yz Ni1_3d_z^2    3.09159     0  -1   0        -0.00000         -0.00000 
      2 Ni1_3d_yz Ni1_3d_xz    3.09159     0  -1   0         0.00002          0.00004 
      2 Ni1_3d_yz Ni1_3d_x^2-y^2    3.09159     0  -1   0        -0.00000         -0.00000 
      2 Ni1_3d_z^2    Ni1_4s    3.09159     0  -1   0         0.00066         -0.00069 
      2 Ni1_3d_z^2 Ni1_3d_xy    3.09159     0  -1   0         0.00016          0.00050 
      2 Ni1_3d_z^2 Ni1_3d_yz    3.09159     0  -1   0        -0.00000         -0.00000 
      2 Ni1_3d_z^2 Ni1_3d_z^2    3.09159     0  -1   0        -0.00017          0.00070 
      2 Ni1_3d_z^2 Ni1_3d_xz    3.09159     0  -1   0        -0.00000         -0.00000 
      2 Ni1_3d_z^2 Ni1_3d_x^2-y^2    3.09159     0  -1   0         0.00000          0.00000 
      2 Ni1_3d_xz    Ni1_4s    3.09159     0  -1   0         0.00001          0.00006 
      2 Ni1_3d_xz Ni1_3d_xy    3.09159     0  -1   0        -0.00000         -0.00001 
      2 Ni1_3d_xz Ni1_3d_yz    3.09159     0  -1   0         0.00002          0.00004 
      2 Ni1_3d_xz Ni1_3d_z^2    3.09159     0  -1   0        -0.00000         -0.00000 
      2 Ni1_3d_xz Ni1_3d_xz    3.09159     0  -1   0         0.00001          0.00009 
      2 Ni1_3d_xz Ni1_3d_x^2-y^2    3.09159     0  -1   0        -0.00000          0.00000 
      2 Ni1_3d_x^2-y^2    Ni1_4s    3.09159     0  -1   0         0.00000          0.00000 
      2 Ni1_3d_x^2-y^2 Ni1_3d_xy    3.09159     0  -1   0        -0.00003          0.00009 
      2 Ni1_3d_x^2-y^2 Ni1_3d_yz    3.09159     0  -1   0        -0.00000         -0.00000 
      2 Ni1_3d_x^2-y^2 Ni1_3d_z^2    3.09159     0  -1   0         0.00000          0.00000 
      2 Ni1_3d_x^2-y^2 Ni1_3d_xz    3.09159     0  -1   0        -0.00000          0.00000 
      2 Ni1_3d_x^2-y^2 Ni1_3d_x^2-y^2    3.09159     0  -1   0        -0.00012         -0.00007 
      3       Ni1       Ni1    3.09159    -1   0   0        -0.03213         -0.03408 
      3    Ni1_4s    Ni1_4s    3.09159    -1   0   0        -0.03464         -0.03635 
      3    Ni1_4s Ni1_3d_xy    3.09159    -1   0   0         0.00003          0.00005 
      3    Ni1_4s Ni1_3d_yz    3.09159    -1   0   0         0.00037          0.00032 
      3    Ni1_4s Ni1_3d_z^2    3.09159    -1   0   0         0.00010         -0.00018 
      3    Ni1_4s Ni1_3d_xz    3.09159    -1   0   0         0.00004          0.00007 
      3    Ni1_4s Ni1_3d_x^2-y^2    3.09159    -1   0   0         0.00048         -0.00055 
      3 Ni1_3d_xy    Ni1_4s    3.09159    -1   0   0         0.00003          0.00005 
      3 Ni1_3d_xy Ni1_3d_xy    3.09159    -1   0   0         0.00003          0.00010 
      3 Ni1_3d_xy Ni1_3d_yz    3.09159    -1   0   0         0.00000         -0.00002 
      3 Ni1_3d_xy Ni1_3d_z^2    3.09159    -1   0   0        -0.00000         -0.00000 
      3 Ni1_3d_xy Ni1_3d_xz    3.09159    -1   0   0        -0.00003          0.00006 
      3 Ni1_3d_xy Ni1_3d_x^2-y^2    3.09159    -1   0   0        -0.00001         -0.00002 
      3 Ni1_3d_yz    Ni1_4s    3.09159    -1   0   0         0.00037          0.00032 
      3 Ni1_3d_yz Ni1_3d_xy    3.09159    -1   0   0         0.00000         -0.00002 
      3 Ni1_3d_yz Ni1_3d_yz    3.09159    -1   0   0         0.00045          0.00074 
      3 Ni1_3d_yz Ni1_3d_z^2    3.09159    -1   0   0        -0.00003         -0.00004 
      3 Ni1_3d_yz Ni1_3d_xz    3.09159    -1   0   0        -0.00001         -0.00001 
      3 Ni1_3d_yz Ni1_3d_x^2-y^2    3.09159    -1   0   0         0.00015          0.00071 
      3 Ni1_3d_z^2    Ni1_4s    3.09159    -1   0   0         0.00010         -0.00018 
      3 Ni1_3d_z^2 Ni1_3d_xy    3.09159    -1   0   0        -0.00000         -0.00000 
      3 Ni1_3d_z^2 Ni1_3d_yz    3.09159    -1   0   0        -0.00003         -0.00004 
      3 Ni1_3d_z^2 Ni1_3d_z^2    3.09159    -1   0   0         0.00001         -0.00023 
      3 Ni1_3d_z^2 Ni1_3d_xz    3.09159    -1   0   0         0.00001         -0.00003 
      3 Ni1_3d_z^2 Ni1_3d_x^2-y^2    3.09159    -1   0   0        -0.00015          0.00035 
      3 Ni1_3d_xz    Ni1_4s    3.09159    -1   0   0         0.00004          0.00007 
      3 Ni1_3d_xz Ni1_3d_xy    3.09159    -1   0   0        -0.00003          0.00006 
      3 Ni1_3d_xz Ni1_3d_yz    3.09159    -1   0   0        -0.00001         -0.00001 
      3 Ni1_3d_xz Ni1_3d_z^2    3.09159    -1   0   0         0.00001         -0.00003 
      3 Ni1_3d_xz Ni1_3d_xz    3.09159    -1   0   0         0.00003          0.00007 
      3 Ni1_3d_xz Ni1_3d_x^2-y^2    3.09159    -1   0   0        -0.00002          0.00001 
      3 Ni1_3d_x^2-y^2    Ni1_4s    3.09159    -1   0   0         0.00048         -0.00055 
      3 Ni1_3d_x^2-y^2 Ni1_3d_xy    3.09159    -1   0   0        -0.00001         -0.00002 
      3 Ni1_3d_x^2-y^2 Ni1_3d_yz    3.09159    -1   0   0         0.00015          0.00071 
      3 Ni1_3d_x^2-y^2 Ni1_3d_z^2    3.09159    -1   0   0        -0.00015          0.00035 
      3 Ni1_3d_x^2-y^2 Ni1_3d_xz    3.09159    -1   0   0        -0.00002          0.00001 
      3 Ni1_3d_x^2-y^2 Ni1_3d_x^2-y^2    3.09159    -1   0   0         0.00009          0.00013 
      4       Ni1       Ni1    0.00000     0   0   0        18.90587         18.97993 
      4    Ni1_4s    Ni1_4s    0.00000     0   0   0         2.17412          2.20700 
      4    Ni1_4s Ni1_3d_xy    0.00000     0   0   0        -0.00331         -0.00401 
      4    Ni1_4s Ni1_3d_yz    0.00000     0   0   0        -0.00496         -0.00601 
      4    Ni1_4s Ni1_3d_z^2    0.00000     0   0   0        -0.00014         -0.00017 
      4    Ni1_4s Ni1_3d_xz    0.00000     0   0   0        -0.00410         -0.00483 
      4    Ni1_4s Ni1_3d_x^2-y^2    0.00000     0   0   0        -0.00003         -0.00004 
      4 Ni1_3d_xy    Ni1_4s    0.00000     0   0   0        -0.00331         -0.00401 
      4 Ni1_3d_xy Ni1_3d_xy    0.00000     0   0   0         3.62047          4.20873 
      4 Ni1_3d_xy Ni1_3d_yz    0.00000     0   0   0         0.00007          0.00009 
      4 Ni1_3d_xy Ni1_3d_z^2    0.00000     0   0   0        -0.00003         -0.00043 
      4 Ni1_3d_xy Ni1_3d_xz    0.00000     0   0   0         0.00004          0.00008 
      4 Ni1_3d_xy Ni1_3d_x^2-y^2    0.00000     0   0   0         0.00031         -0.00442 
      4 Ni1_3d_yz    Ni1_4s    0.00000     0   0   0        -0.00496         -0.00601 
      4 Ni1_3d_yz Ni1_3d_xy    0.00000     0   0   0         0.00007          0.00009 
      4 Ni1_3d_yz Ni1_3d_yz    0.00000     0   0   0         3.63046          4.22263 
      4 Ni1_3d_yz Ni1_3d_z^2    0.00000     0   0   0         0.00036         -0.00525 
      4 Ni1_3d_yz Ni1_3d_xz    0.00000     0   0   0         0.00004          0.00004 
      4 Ni1_3d_yz Ni1_3d_x^2-y^2    0.00000     0   0   0         0.00003         -0.00042 
      4 Ni1_3d_z^2    Ni1_4s    0.00000     0   0   0        -0.00014         -0.00017 
      4 Ni1_3d_z^2 Ni1_3d_xy    0.00000     0   0   0        -0.00003         -0.00043 
      4 Ni1_3d_z^2 Ni1_3d_yz    0.00000     0   0   0         0.00036         -0.00525 
      4 Ni1_3d_z^2 Ni1_3d_z^2    0.00000     0   0   0         2.94204          2.10811 
      4 Ni1_3d_z^2 Ni1_3d_xz    0.00000     0   0   0         0.00029         -0.00432 
      4 Ni1_3d_z^2 Ni1_3d_x^2-y^2    0.00000     0   0   0        -0.00000         -0.00000 
      4 Ni1_3d_xz    Ni1_4s    0.00000     0   0   0        -0.00410         -0.00483 
      4 Ni1_3d_xz Ni1_3d_xy    0.00000     0   0   0         0.00004          0.00008 
      4 Ni1_3d_xz Ni1_3d_yz    0.00000     0   0   0         0.00004          0.00004 
      4 Ni1_3d_xz Ni1_3d_z^2    0.00000     0   0   0         0.00029         -0.00432 
      4 Ni1_3d_xz Ni1_3d_xz    0.00000     0   0   0         3.62525          4.21612 
      4 Ni1_3d_xz Ni1_3d_x^2-y^2    0.00000     0   0   0         0.00005         -0.00052 
      4 Ni1_3d_x^2-y^2    Ni1_4s    0.00000     0   0   0        -0.00003         -0.00004 
      4 Ni1_3d_x^2-y^2 Ni1_3d_xy    0.00000     0   0   0         0.00031         -0.00442 
      4 Ni1_3d_x^2-y^2 Ni1_3d_yz    0.00000     0   0   0         0.00003         -0.00042 
      4 Ni1_3d_x^2-y^2 Ni1_3d_z^2    0.00000     0   0   0        -0.00000         -0.00000 
      4 Ni1_3d_x^2-y^2 Ni1_3d_xz    0.00000     0   0   0         0.00005         -0.00052 
      4 Ni1_3d_x^2-y^2 Ni1_3d_x^2-y^2    0.00000     0   0   0         2.93628          2.07779 
      5       Ni1       Ni1    3.09159     1   0   0        -0.03213         -0.03408 
      5    Ni1_4s    Ni1_4s    3.09159     1   0   0        -0.03464         -0.03635 
      5    Ni1_4s Ni1_3d_xy    3.09159     1   0   0         0.00003          0.00005 
      5    Ni1_4s Ni1_3d_yz    3.09159     1   0   0         0.00037          0.00032 
      5    Ni1_4s Ni1_3d_z^2    3.09159     1   0   0         0.00010         -0.00018 
      5    Ni1_4s Ni1_3d_xz    3.09159     1   0   0         0.00004          0.00007 
      5    Ni1_4s Ni1_3d_x^2-y^2    3.09159     1   0   0         0.00048         -0.00055 
      5 Ni1_3d_xy    Ni1_4s    3.09159     1   0   0         0.00003          0.00005 
      5 Ni1_3d_xy Ni1_3d_xy    3.09159     1   0   0         0.00003          0.00010 
      5 Ni1_3d_xy Ni1_3d_yz    3.09159     1   0   0         0.00000         -0.00002 
      5 Ni1_3d_xy Ni1_3d_z^2    3.09159     1   0   0        -0.00000         -0.00000 
      5 Ni1_3d_xy Ni1_3d_xz    3.09159     1   0   0        -0.00003          0.00006 
      5 Ni1_3d_xy Ni1_3d_x^2-y^2    3.09159     1   0   0        -0.00001         -0.00002 
      5 Ni1_3d_yz    Ni1_4s    3.09159     1   0   0         0.00037          0.00032 
      5 Ni1_3d_yz Ni1_3d_xy    3.09159     1   0   0         0.00000         -0.00002 
      5 Ni1_3d_yz Ni1_3d_yz    3.09159     1   0   0         0.00045          0.00074 
      5 Ni1_3d_yz Ni1_3d_z^2    3.09159     1   0   0        -0.00003         -0.00004 
      5 Ni1_3d_yz Ni1_3d_xz    3.09159     1   0   0        -0.00001         -0.00001 
      5 Ni1_3d_yz Ni1_3d_x^2-y^2    3.09159     1   0   0         0.00015          0.00071 
      5 Ni1_3d_z^2    Ni1_4s    3.09159     1   0   0         0.00010         -0.00018 
      5 Ni1_3d_z^2 Ni1_3d_xy    3.09159     1   0   0        -0.00000         -0.00000 
      5 Ni1_3d_z^2 Ni1_3d_yz    3.09159     1   0   0        -0.00003         -0.00004 
      5 Ni1_3d_z^2 Ni1_3d_z^2    3.09159     1   0   0         0.00001         -0.00023 
      5 Ni1_3d_z^2 Ni1_3d_xz    3.09159     1   0   0         0.00001         -0.00003 
      5 Ni1_3d_z^2 Ni1_3d_x^2-y^2    3.09159     1   0   0        -0.00015          0.00035 
      5 Ni1_3d_xz    Ni1_4s    3.09159     1   0   0         0.00004          0.00007 
      5 Ni1_3d_xz Ni1_3d_xy    3.09159     1   0   0        -0.00003          0.00006 
      5 Ni1_3d_xz Ni1_3d_yz    3.09159     1   0   0        -0.00001         -0.00001 
      5 Ni1_3d_xz Ni1_3d_z^2    3.09159     1   0   0         0.00001         -0.00003 
      5 Ni1_3d_xz Ni1_3d_xz    3.09159     1   0   0         0.00003          0.00007 
      5 Ni1_3d_xz Ni1_3d_x^2-y^2    3.09159     1   0   0        -0.00002          0.00001 
      5 Ni1_3d_x^2-y^2    Ni1_4s    3.09159     1   0   0         0.00048         -0.00055 
      5 Ni1_3d_x^2-y^2 Ni1_3d_xy    3.09159     1   0   0        -0.00001         -0.00002 
      5 Ni1_3d_x^2-y^2 Ni1_3d_yz    3.09159     1   0   0         0.00015          0.00071 
      5 Ni1_3d_x^2-y^2 Ni1_3d_z^2    3.09159     1   0   0        -0.00015          0.00035 
      5 Ni1_3d_x^2-y^2 Ni1_3d_xz    3.09159     1   0   0        -0.00002          0.00001 
      5 Ni1_3d_x^2-y^2 Ni1_3d_x^2-y^2    3.09159     1   0   0         0.00009          0.00013 
      6       Ni1       Ni1    3.09159     0   1   0        -0.03214         -0.03408 
      6    Ni1_4s    Ni1_4s    3.09159     0   1   0        -0.03465         -0.03635 
      6    Ni1_4s Ni1_3d_xy    3.09159     0   1   0         0.00034          0.00026 
      6    Ni1_4s Ni1_3d_yz    3.09159     0   1   0         0.00001          0.00008 
      6    Ni1_4s Ni1_3d_z^2    3.09159     0   1   0         0.00066         -0.00069 
      6    Ni1_4s Ni1_3d_xz    3.09159     0   1   0         0.00001          0.00006 
      6    Ni1_4s Ni1_3d_x^2-y^2    3.09159     0   1   0         0.00000          0.00000 
      6 Ni1_3d_xy    Ni1_4s    3.09159     0   1   0         0.00034          0.00026 
      6 Ni1_3d_xy Ni1_3d_xy    3.09159     0   1   0         0.00047          0.00083 
      6 Ni1_3d_xy Ni1_3d_yz    3.09159     0   1   0        -0.00000         -0.00001 
      6 Ni1_3d_xy Ni1_3d_z^2    3.09159     0   1   0         0.00016          0.00050 
      6 Ni1_3d_xy Ni1_3d_xz    3.09159     0   1   0        -0.00000         -0.00001 
      6 Ni1_3d_xy Ni1_3d_x^2-y^2    3.09159     0   1   0        -0.00003          0.00009 
      6 Ni1_3d_yz    Ni1_4s    3.09159     0   1   0         0.00001          0.00008 
      6 Ni1_3d_yz Ni1_3d_xy    3.09159     0   1   0        -0.00000         -0.00001 
      6 Ni1_3d_yz Ni1_3d_yz    3.09159     0   1   0         0.00001          0.00007 
      6 Ni1_3d_yz Ni1_3d_z^2    3.09159     0   1   0        -0.00000         -0.00000 
      6 Ni1_3d_yz Ni1_3d_xz    3.09159     0   1   0         0.00002          0.00004 
      6 Ni1_3d_yz Ni1_3d_x^2-y^2    3.09159     0   1   0        -0.00000         -0.00000 
      6 Ni1_3d_z^2    Ni1_4s    3.09159     0   1   0         0.00066         -0.00069 
      6 Ni1_3d_z^2 Ni1_3d_xy    3.09159     0   1   0         0.00016          0.00050 
      6 Ni1_3d_z^2 Ni1_3d_yz    3.09159     0   1   0        -0.00000         -0.00000 
      6 Ni1_3d_z^2 Ni1_3d_z^2    3.09159     0   1   0        -0.00017          0.00070 
      6 Ni1_3d_z^2 Ni1_3d_xz    3.09159     0   1   0        -0.00000         -0.00000 
      6 Ni1_3d_z^2 Ni1_3d_x^2-y^2    3.09159     0   1   0         0.00000          0.00000 
      6 Ni1_3d_xz    Ni1_4s    3.09159     0   1   0         0.00001          0.00006 
      6 Ni1_3d_xz Ni1_3d_xy    3.09159     0   1   0        -0.00000         -0.00001 
      6 Ni1_3d_xz Ni1_3d_yz    3.09159     0   1   0         0.00002          0.00004 
      6 Ni1_3d_xz Ni1_3d_z^2    3.09159     0   1   0        -0.00000         -0.00000 
      6 Ni1_3d_xz Ni1_3d_xz    3.09159     0   1   0         0.00001          0.00009 
      6 Ni1_3d_xz Ni1_3d_x^2-y^2    3.09159     0   1   0        -0.00000          0.00000 
      6 Ni1_3d_x^2-y^2    Ni1_4s    3.09159     0   1   0         0.00000          0.00000 
      6 Ni1_3d_x^2-y^2 Ni1_3d_xy    3.09159     0   1   0        -0.00003          0.00009 
      6 Ni1_3d_x^2-y^2 Ni1_3d_yz    3.09159     0   1   0        -0.00000         -0.00000 
      6 Ni1_3d_x^2-y^2 Ni1_3d_z^2    3.09159     0   1   0         0.00000          0.00000 
      6 Ni1_3d_x^2-y^2 Ni1_3d_xz    3.09159     0   1   0        -0.00000          0.00000 
      6 Ni1_3d_x^2-y^2 Ni1_3d_x^2-y^2    3.09159     0   1   0        -0.00012         -0.00007 
      7       Ni1       Ni1    3.09159     1   1   0        -0.03208         -0.03400 
      7    Ni1_4s    Ni1_4s    3.09159     1   1   0        -0.03459         -0.03628 
      7    Ni1_4s Ni1_3d_xy    3.09159     1   1   0         0.00000          0.00003 
      7    Ni1_4s Ni1_3d_yz    3.09159     1   1   0         0.00007          0.00010 
      7    Ni1_4s Ni1_3d_z^2    3.09159     1   1   0         0.00010         -0.00017 
      7    Ni1_4s Ni1_3d_xz    3.09159     1   1   0         0.00035          0.00028 
      7    Ni1_4s Ni1_3d_x^2-y^2    3.09159     1   1   0         0.00051         -0.00052 
      7 Ni1_3d_xy    Ni1_4s    3.09159     1   1   0         0.00000          0.00003 
      7 Ni1_3d_xy Ni1_3d_xy    3.09159     1   1   0         0.00000          0.00007 
      7 Ni1_3d_xy Ni1_3d_yz    3.09159     1   1   0        -0.00000          0.00003 
      7 Ni1_3d_xy Ni1_3d_z^2    3.09159     1   1   0         0.00001          0.00000 
      7 Ni1_3d_xy Ni1_3d_xz    3.09159     1   1   0         0.00002          0.00007 
      7 Ni1_3d_xy Ni1_3d_x^2-y^2    3.09159     1   1   0         0.00001          0.00001 
      7 Ni1_3d_yz    Ni1_4s    3.09159     1   1   0         0.00007          0.00010 
      7 Ni1_3d_yz Ni1_3d_xy    3.09159     1   1   0        -0.00000          0.00003 
      7 Ni1_3d_yz Ni1_3d_yz    3.09159     1   1   0         0.00002          0.00007 
      7 Ni1_3d_yz Ni1_3d_z^2    3.09159     1   1   0         0.00001         -0.00002 
      7 Ni1_3d_yz Ni1_3d_xz    3.09159     1   1   0         0.00001          0.00001 
      7 Ni1_3d_yz Ni1_3d_x^2-y^2    3.09159     1   1   0        -0.00006          0.00006 
      7 Ni1_3d_z^2    Ni1_4s    3.09159     1   1   0         0.00010         -0.00017 
      7 Ni1_3d_z^2 Ni1_3d_xy    3.09159     1   1   0         0.00001          0.00000 
      7 Ni1_3d_z^2 Ni1_3d_yz    3.09159     1   1   0         0.00001         -0.00002 
      7 Ni1_3d_z^2 Ni1_3d_z^2    3.09159     1   1   0         0.00001         -0.00023 
      7 Ni1_3d_z^2 Ni1_3d_xz    3.09159     1   1   0        -0.00003         -0.00005 
      7 Ni1_3d_z^2 Ni1_3d_x^2-y^2    3.09159     1   1   0        -0.00016          0.00035 
      7 Ni1_3d_xz    Ni1_4s    3.09159     1   1   0         0.00035          0.00028 
      7 Ni1_3d_xz Ni1_3d_xy    3.09159     1   1   0         0.00002          0.00007 
      7 Ni1_3d_xz Ni1_3d_yz    3.09159     1   1   0         0.00001          0.00001 
      7 Ni1_3d_xz Ni1_3d_z^2    3.09159     1   1   0        -0.00003         -0.00005 
      7 Ni1_3d_xz Ni1_3d_xz    3.09159     1   1   0         0.00042          0.00070 
      7 Ni1_3d_xz Ni1_3d_x^2-y^2    3.09159     1   1   0         0.00015          0.00061 
      7 Ni1_3d_x^2-y^2    Ni1_4s    3.09159     1   1   0         0.00051         -0.00052 
      7 Ni1_3d_x^2-y^2 Ni1_3d_xy    3.09159     1   1   0         0.00001          0.00001 
      7 Ni1_3d_x^2-y^2 Ni1_3d_yz    3.09159     1   1   0        -0.00005          0.00006 
      7 Ni1_3d_x^2-y^2 Ni1_3d_z^2    3.09159     1   1   0        -0.00016          0.00035 
      7 Ni1_3d_x^2-y^2 Ni1_3d_xz    3.09159     1   1   0         0.00015          0.00061 
      7 Ni1_3d_x^2-y^2 Ni1_3d_x^2-y^2    3.09159     1   1   0         0.00008          0.00011 
      8       Ni1       Ni2    4.64002     0   0   0         0.00302          0.00370 
      8    Ni1_4s    Ni2_4s    4.64002     0   0   0         0.00361          0.00436 
      8    Ni1_4s Ni2_3d_xy    4.64002     0   0   0        -0.00002         -0.00003 
      8    Ni1_4s Ni2_3d_yz    4.64002     0   0   0        -0.00005         -0.00006 
      8    Ni1_4s Ni2_3d_z^2    4.64002     0   0   0        -0.00006         -0.00007 
      8    Ni1_4s Ni2_3d_xz    4.64002     0   0   0        -0.00015         -0.00015 
      8    Ni1_4s Ni2_3d_x^2-y^2    4.64002     0   0   0        -0.00001         -0.00001 
      8 Ni1_3d_xy    Ni2_4s    4.64002     0   0   0        -0.00008         -0.00008 
      8 Ni1_3d_xy Ni2_3d_xy    4.64002     0   0   0        -0.00002         -0.00005 
      8 Ni1_3d_xy Ni2_3d_yz    4.64002     0   0   0        -0.00000          0.00000 
      8 Ni1_3d_xy Ni2_3d_z^2    4.64002     0   0   0        -0.00000         -0.00002 
      8 Ni1_3d_xy Ni2_3d_xz    4.64002     0   0   0        -0.00000          0.00001 
      8 Ni1_3d_xy Ni2_3d_x^2-y^2    4.64002     0   0   0        -0.00000         -0.00000 
      8 Ni1_3d_yz    Ni2_4s    4.64002     0   0   0        -0.00012         -0.00012 
      8 Ni1_3d_yz Ni2_3d_xy    4.64002     0   0   0        -0.00000          0.00000 
      8 Ni1_3d_yz Ni2_3d_yz    4.64002     0   0   0         0.00002          0.00002 
      8 Ni1_3d_yz Ni2_3d_z^2    4.64002     0   0   0        -0.00002         -0.00002 
      8 Ni1_3d_yz Ni2_3d_xz    4.64002     0   0   0         0.00000          0.00000 
      8 Ni1_3d_yz Ni2_3d_x^2-y^2    4.64002     0   0   0        -0.00002         -0.00006 
      8 Ni1_3d_z^2    Ni2_4s    4.64002     0   0   0        -0.00000         -0.00000 
      8 Ni1_3d_z^2 Ni2_3d_xy    4.64002     0   0   0         0.00000         -0.00001 
      8 Ni1_3d_z^2 Ni2_3d_yz    4.64002     0   0   0         0.00001          0.00003 
      8 Ni1_3d_z^2 Ni2_3d_z^2    4.64002     0   0   0         0.00003          0.00008 
      8 Ni1_3d_z^2 Ni2_3d_xz    4.64002     0   0   0        -0.00000         -0.00001 
      8 Ni1_3d_z^2 Ni2_3d_x^2-y^2    4.64002     0   0   0         0.00000          0.00000 
      8 Ni1_3d_xz    Ni2_4s    4.64002     0   0   0        -0.00010         -0.00012 
      8 Ni1_3d_xz Ni2_3d_xy    4.64002     0   0   0        -0.00000         -0.00001 
      8 Ni1_3d_xz Ni2_3d_yz    4.64002     0   0   0         0.00000         -0.00001 
      8 Ni1_3d_xz Ni2_3d_z^2    4.64002     0   0   0        -0.00000         -0.00001 
      8 Ni1_3d_xz Ni2_3d_xz    4.64002     0   0   0        -0.00001         -0.00002 
      8 Ni1_3d_xz Ni2_3d_x^2-y^2    4.64002     0   0   0        -0.00001         -0.00002 
      8 Ni1_3d_x^2-y^2    Ni2_4s    4.64002     0   0   0        -0.00000         -0.00000 
      8 Ni1_3d_x^2-y^2 Ni2_3d_xy    4.64002     0   0   0        -0.00000         -0.00000 
      8 Ni1_3d_x^2-y^2 Ni2_3d_yz    4.64002     0   0   0        -0.00001         -0.00002 
      8 Ni1_3d_x^2-y^2 Ni2_3d_z^2    4.64002     0   0   0        -0.00000         -0.00001 
      8 Ni1_3d_x^2-y^2 Ni2_3d_xz    4.64002     0   0   0        -0.00001         -0.00003 
      8 Ni1_3d_x^2-y^2 Ni2_3d_x^2-y^2    4.64002     0   0   0         0.00007          0.00015 
      9       Ni1       Ni2    4.64002     0   0   1         0.00302          0.00370 
      9    Ni1_4s    Ni2_4s    4.64002     0   0   1         0.00360          0.00435 
      9    Ni1_4s Ni2_3d_xy    4.64002     0   0   1        -0.00002         -0.00003 
      9    Ni1_4s Ni2_3d_yz    4.64002     0   0   1        -0.00005         -0.00006 
      9    Ni1_4s Ni2_3d_z^2    4.64002     0   0   1        -0.00006         -0.00007 
      9    Ni1_4s Ni2_3d_xz    4.64002     0   0   1        -0.00015         -0.00015 
      9    Ni1_4s Ni2_3d_x^2-y^2    4.64002     0   0   1        -0.00001         -0.00001 
      9 Ni1_3d_xy    Ni2_4s    4.64002     0   0   1        -0.00008         -0.00008 
      9 Ni1_3d_xy Ni2_3d_xy    4.64002     0   0   1        -0.00002         -0.00005 
      9 Ni1_3d_xy Ni2_3d_yz    4.64002     0   0   1        -0.00000          0.00000 
      9 Ni1_3d_xy Ni2_3d_z^2    4.64002     0   0   1        -0.00000         -0.00002 
      9 Ni1_3d_xy Ni2_3d_xz    4.64002     0   0   1        -0.00000          0.00001 
      9 Ni1_3d_xy Ni2_3d_x^2-y^2    4.64002     0   0   1        -0.00000         -0.00000 
      9 Ni1_3d_yz    Ni2_4s    4.64002     0   0   1        -0.00012         -0.00012 
      9 Ni1_3d_yz Ni2_3d_xy    4.64002     0   0   1        -0.00000          0.00000 
      9 Ni1_3d_yz Ni2_3d_yz    4.64002     0   0   1         0.00002          0.00002 
      9 Ni1_3d_yz Ni2_3d_z^2    4.64002     0   0   1        -0.00002         -0.00002 
      9 Ni1_3d_yz Ni2_3d_xz    4.64002     0   0   1         0.00000          0.00000 
      9 Ni1_3d_yz Ni2_3d_x^2-y^2    4.64002     0   0   1        -0.00002         -0.00006 
      9 Ni1_3d_z^2    Ni2_4s    4.64002     0   0   1        -0.00000         -0.00000 
      9 Ni1_3d_z^2 Ni2_3d_xy    4.64002     0   0   1         0.00000         -0.00001 
      9 Ni1_3d_z^2 Ni2_3d_yz    4.64002     0   0   1         0.00001          0.00003 
      9 Ni1_3d_z^2 Ni2_3d_z^2    4.64002     0   0   1         0.00003          0.00008 
      9 Ni1_3d_z^2 Ni2_3d_xz    4.64002     0   0   1        -0.00000         -0.00001 
      9 Ni1_3d_z^2 Ni2_3d_x^2-y^2    4.64002     0   0   1         0.00000          0.00000 
      9 Ni1_3d_xz    Ni2_4s    4.64002     0   0   1        -0.00010         -0.00012 
      9 Ni1_3d_xz Ni2_3d_xy    4.64002     0   0   1        -0.00000         -0.00001 
      9 Ni1_3d_xz Ni2_3d_yz    4.64002     0   0   1         0.00000         -0.00001 
      9 Ni1_3d_xz Ni2_3d_z^2    4.64002     0   0   1        -0.00001         -0.00001 
      9 Ni1_3d_xz Ni2_3d_xz    4.64002     0   0   1        -0.00001         -0.00002 
      9 Ni1_3d_xz Ni2_3d_x^2-y^2    4.64002     0   0   1        -0.00000         -0.00002 
      9 Ni1_3d_x^2-y^2    Ni2_4s    4.64002     0   0   1        -0.00000         -0.00000 
      9 Ni1_3d_x^2-y^2 Ni2_3d_xy    4.64002     0   0   1        -0.00000         -0.00000 
      9 Ni1_3d_x^2-y^2 Ni2_3d_yz    4.64002     0   0   1        -0.00001         -0.00002 
      9 Ni1_3d_x^2-y^2 Ni2_3d_z^2    4.64002     0   0   1        -0.00000         -0.00001 
      9 Ni1_3d_x^2-y^2 Ni2_3d_xz    4.64002     0   0   1        -0.00001         -0.00003 
      9 Ni1_3d_x^2-y^2 Ni2_3d_x^2-y^2    4.64002     0   0   1         0.00007          0.00015 
     10       Ni1        N3    3.73072    -2  -1   0        -0.00137         -0.00146 
     10    Ni1_4s     N3_2s    3.73072    -2  -1   0        -0.00005         -0.00002 