ESCALE ; pCOOP file generated by LOBSTER. Energy is shifted such that the Fermi level lies at 0 eV.
       157          2        401  -9.35869e+00   1.06914e+01   5.67890e+00 
Average
No.1:Ni1->Ni1(3.0915897789543862)
No.2:Ni1->Ni1(3.0915897790014717)
No.3:Ni1->Ni1(3.0915897789535132)
No.4:Ni1->Ni1(3.0915897789535132)
No.5:Ni1->Ni1(3.0915897790014717)
No.6:Ni1->Ni1(3.0915897789543862)
No.7:Ni1->N3(3.7307203258264248)
No.8:Ni1->N3(2.088144411839012)
No.9:Ni1->N3(3.7307204052989849)
No.10:Ni1->N3(2.0881444095499555)
No.11:Ni1->N3(2.0881444804738711)
No.12:Ni1->N3(3.7307204027379881)
No.13:Ni1->N4(3.7307203987277018)
No.14:Ni1->N4(2.0881443359919563)
No.15:Ni1->N4(2.0881443337265675)
No.16:Ni1->N4(3.7307202475715502)
No.17:Ni1->N4(2.0881441986985583)
No.18:Ni1->N4(3.7307202449575634)
No.19:Ni1->N5(3.9791363778544677)
No.20:Ni1->N5(3.9791363766656525)
No.21:Ni1->N5(3.9791363058065667)
No.22:Ni1->N6(3.9791360930164701)
No.23:Ni1->N6(3.9791360918152345)
No.24:Ni1->N6(3.9791361290342127)
No.25:Ni1->C7(2.9271880488844695)
No.26:Ni1->C7(2.9271880472515437)
No.27:Ni1->C7(2.9271880978459626)
No.28:Ni1->C8(2.9271880978459643)
No.29:Ni1->C8(2.9271880962299224)
No.30:Ni1->C8(2.9271879999060921)
No.31:Ni2->Ni2(3.0915897789543862)
No.32:Ni2->Ni2(3.0915897790014717)
No.33:Ni2->Ni2(3.0915897789535132)
No.34:Ni2->Ni2(3.0915897789535132)
No.35:Ni2->Ni2(3.0915897790014717)
No.36:Ni2->Ni2(3.0915897789543862)
No.37:Ni2->N3(3.9791360930164701)
No.38:Ni2->N3(3.9791360918152345)
No.39:Ni2->N3(3.9791361290342127)
No.40:Ni2->N4(3.9791363778544677)
No.41:Ni2->N4(3.9791363766656525)
No.42:Ni2->N4(3.9791363058065667)
No.43:Ni2->N5(3.7307203987277018)
No.44:Ni2->N5(2.0881443359919563)
No.45:Ni2->N5(2.0881443337265675)
No.46:Ni2->N5(3.7307202475715502)
No.47:Ni2->N5(2.0881441986985583)
No.48:Ni2->N5(3.7307202449575634)
No.49:Ni2->N6(3.7307203258264248)
No.50:Ni2->N6(2.088144411839012)
No.51:Ni2->N6(3.7307204052989849)
No.52:Ni2->N6(2.0881444095499555)
No.53:Ni2->N6(2.0881444804738711)
No.54:Ni2->N6(3.7307204027379881)
No.55:Ni2->C7(2.9271880488844695)
No.56:Ni2->C7(2.9271880472515437)
No.57:Ni2->C7(2.9271880978459626)
No.58:Ni2->C8(2.9271880978459643)
No.59:Ni2->C8(2.9271880962299224)
No.60:Ni2->C8(2.9271879999060921)
No.61:N3->N3(3.0915897789543862)
No.62:N3->N3(3.0915897790014717)
No.63:N3->N3(3.0915897789535132)
No.64:N3->N3(3.0915897789535132)
No.65:N3->N3(3.0915897790014717)
No.66:N3->N3(3.0915897789543862)
No.67:N3->N4(2.8077500977736545)
No.68:N3->N4(2.8077499990537622)
No.69:N3->N4(2.8077499445704897)
No.70:N3->N6(3.9587813945820138)
No.71:N3->N6(3.9587813946187844)
No.72:N3->N6(3.9587813945813317)
No.73:N3->N6(2.4726550039893316)
No.74:N3->N6(3.9587813945813317)
No.75:N3->N6(3.9587813946187844)
No.76:N3->N6(3.9587813945820138)
No.77:N3->C7(3.3296295670124629)
No.78:N3->C7(3.3296295670561817)
No.79:N3->C7(3.329629567011652)
No.80:N3->C7(1.2363275019946658)
No.81:N3->C7(3.329629567011652)
No.82:N3->C7(3.3296295670561817)
No.83:N3->C7(3.3296295670124629)
No.84:N3->C8(3.8433217018396006)
No.85:N3->C8(3.8433216297194903)
No.86:N3->C8(3.8433215899165742)
No.87:N4->N4(3.0915897789543862)
No.88:N4->N4(3.0915897790014717)
No.89:N4->N4(3.0915897789535132)
No.90:N4->N4(3.0915897789535132)
No.91:N4->N4(3.0915897790014717)
No.92:N4->N4(3.0915897789543862)
No.93:N4->N5(3.9587817423610341)
No.94:N4->N5(3.9587817423978051)
No.95:N4->N5(3.9587817423603524)
No.96:N4->N5(2.4726555607920471)
No.97:N4->N5(3.9587817423603524)
No.98:N4->N5(3.9587817423978051)
No.99:N4->N5(3.9587817423610341)
No.100:N4->C7(3.8433213433606941)
No.101:N4->C7(3.8433213831636128)
No.102:N4->C7(3.8433214552837276)
No.103:N4->C8(3.329629670385911)
No.104:N4->C8(3.3296296704296298)
No.105:N4->C8(3.3296296703851005)
No.106:N4->C8(1.2363277803960235)
No.107:N4->C8(3.3296296703851005)
No.108:N4->C8(3.3296296704296298)
No.109:N4->C8(3.329629670385911)
No.110:N5->N5(3.0915897789543862)
No.111:N5->N5(3.0915897790014717)
No.112:N5->N5(3.0915897789535132)
No.113:N5->N5(3.0915897789535132)
No.114:N5->N5(3.0915897790014717)
No.115:N5->N5(3.0915897789543862)
No.116:N5->N6(2.8077499445704901)
No.117:N5->N6(2.8077499990537627)
No.118:N5->N6(2.8077500977736549)
No.119:N5->C7(3.8433213433606941)
No.120:N5->C7(3.8433213831636128)
No.121:N5->C7(3.8433214552837276)
No.122:N5->C8(3.329629670385911)
No.123:N5->C8(3.3296296704296298)
No.124:N5->C8(3.3296296703851005)
No.125:N5->C8(1.2363277803960235)
No.126:N5->C8(3.3296296703851005)
No.127:N5->C8(3.3296296704296298)
No.128:N5->C8(3.329629670385911)
No.129:N6->N6(3.0915897789543862)
No.130:N6->N6(3.0915897790014717)
No.131:N6->N6(3.0915897789535132)
No.132:N6->N6(3.0915897789535132)
No.133:N6->N6(3.0915897790014717)
No.134:N6->N6(3.0915897789543862)
No.135:N6->C7(3.3296295670124629)
No.136:N6->C7(3.3296295670561817)
No.137:N6->C7(3.329629567011652)
No.138:N6->C7(1.2363275019946656)
No.139:N6->C7(3.329629567011652)
No.140:N6->C7(3.3296295670561817)
No.141:N6->C7(3.3296295670124629)
No.142:N6->C8(3.8433217018396011)
No.143:N6->C8(3.8433216297194908)
No.144:N6->C8(3.8433215899165747)
No.145:C7->C7(3.0915897789543862)
No.146:C7->C7(3.0915897790014717)
No.147:C7->C7(3.0915897789535132)
No.148:C7->C7(3.0915897789535132)
No.149:C7->C7(3.0915897790014717)
No.150:C7->C7(3.0915897789543862)
No.151:C8->C8(3.0915897789543862)
No.152:C8->C8(3.0915897790014717)
No.153:C8->C8(3.0915897789535132)
No.154:C8->C8(3.0915897789535132)
No.155:C8->C8(3.0915897790014717)
No.156:C8->C8(3.0915897789543862)
-15.03759   0.00000   0.00509   0.00000   0.00005   0.00000   0.00005   0.00000   0.00005   0.00000   0.00005   0.00000   0.00005   0.00000   0.00005   0.00000   0.00005   0.00000  -0.00057   0.00000   0.00003   0.00000  -0.00053   0.00000  -0.00057   0.00000   0.00005   0.00000   0.00005   0.00000  -0.00056   0.00000  -0.00053   0.00000   0.00003   0.00000  -0.00057   0.00000   0.00005   0.00000   0.00006   0.00000   0.00007   0.00000   0.00006   0.00000   0.00006   0.00000   0.00007   0.00000   0.00006   0.00000  -0.00052   0.00000  -0.00050   0.00000  -0.00052   0.00000  -0.00052   0.00000  -0.00050   0.00000  -0.00052   0.00000   0.00005   0.00000   0.00005   0.00000   0.00005   0.00000   0.00005   0.00000   0.00005   0.00000   0.00005   0.00000   0.00007   0.00000   0.00006   0.00000   0.00007   0.00000   0.00007   0.00000   0.00006   0.00000   0.00007   0.00000   0.00004   0.00000  -0.00055   0.00000  -0.00058   0.00000   0.00005   0.00000  -0.00055   0.00000   0.00004   0.00000   0.00004   0.00000  -0.00055   0.00000   0.00005   0.00000  -0.00059   0.00000  -0.00055   0.00000   0.00004   0.00000  -0.00051   0.00000  -0.00052   0.00000  -0.00051   0.00000  -0.00050   0.00000  -0.00052   0.00000  -0.00050   0.00000   0.00019   0.00000   0.00018   0.00000   0.00018   0.00000   0.00018   0.00000   0.00018   0.00000   0.00019   0.00000   0.00073   0.00000   0.00073   0.00000   0.00073   0.00000  -0.00001   0.00000  -0.00002   0.00000  -0.00001   0.00000   0.01012   0.00000  -0.00002   0.00000  -0.00001   0.00000  -0.00001   0.00000  -0.00027   0.00000  -0.00028   0.00000  -0.00025   0.00000   0.19774   0.00000  -0.00028   0.00000  -0.00025   0.00000  -0.00027   0.00000   0.00023   0.00000   0.00023   0.00000   0.00023   0.00000   0.00019   0.00000   0.00018   0.00000   0.00018   0.00000   0.00018   0.00000   0.00018   0.00000   0.00019   0.00000  -0.00001   0.00000  -0.00001   0.00000  -0.00002   0.00000   0.01018   0.00000  -0.00001   0.00000  -0.00002   0.00000  -0.00001   0.00000   0.00023   0.00000   0.00023   0.00000   0.00023   0.00000  -0.00027   0.00000  -0.00025   0.00000  -0.00028   0.00000   0.19768   0.00000  -0.00025   0.00000  -0.00028   0.00000  -0.00027   0.00000   0.00018   0.00000   0.00019   0.00000   0.00019   0.00000   0.00019   0.00000   0.00019   0.00000   0.00018   0.00000   0.00072   0.00000   0.00072   0.00000   0.00072   0.00000   0.00023   0.00000   0.00023   0.00000   0.00023   0.00000  -0.00027   0.00000  -0.00028   0.00000  -0.00026   0.00000   0.19804   0.00000  -0.00028   0.00000  -0.00026   0.00000  -0.00027   0.00000   0.00018   0.00000   0.00019   0.00000   0.00019   0.00000   0.00019   0.00000   0.00019   0.00000   0.00018   0.00000  -0.00027   0.00000  -0.00026   0.00000  -0.00028   0.00000   0.19807   0.00000  -0.00026   0.00000  -0.00028   0.00000  -0.00027   0.00000   0.00022   0.00000   0.00022   0.00000   0.00022   0.00000  -0.00096   0.00000  -0.00096   0.00000  -0.00096   0.00000  -0.00096   0.00000  -0.00096   0.00000  -0.00096   0.00000  -0.00096   0.00000  -0.00097   0.00000  -0.00097   0.00000  -0.00097   0.00000  -0.00097   0.00000  -0.00096   0.00000   0.00510   0.00000   0.00005   0.00000   0.00005   0.00000   0.00005   0.00000   0.00005   0.00000   0.00005   0.00000   0.00005   0.00000   0.00004   0.00000  -0.00057   0.00000   0.00006   0.00000  -0.00066   0.00000  -0.00057   0.00000   0.00004   0.00000   0.00004   0.00000  -0.00057   0.00000  -0.00066   0.00000   0.00005   0.00000  -0.00057   0.00000   0.00004   0.00000   0.00008   0.00000   0.00005   0.00000   0.00008   0.00000   0.00008   0.00000   0.00005   0.00000   0.00008   0.00000  -0.00052   0.00000  -0.00056   0.00000  -0.00052   0.00000  -0.00052   0.00000  -0.00056   0.00000  -0.00052   0.00000   0.00005   0.00000   0.00005   0.00000   0.00005   0.00000   0.00005   0.00000   0.00005   0.00000   0.00005   0.00000   0.00006   0.00000   0.00008   0.00000   0.00006   0.00000   0.00006   0.00000   0.00008   0.00000   0.00006   0.00000   0.00005   0.00000  -0.00063   0.00000  -0.00054   0.00000   0.00003   0.00000  -0.00063   0.00000   0.00005   0.00000   0.00005   0.00000  -0.00063   0.00000   0.00003   0.00000  -0.00054   0.00000  -0.00063   0.00000   0.00005   0.00000  -0.00055   0.00000  -0.00050   0.00000  -0.00055   0.00000  -0.00055   0.00000  -0.00050   0.00000  -0.00055   0.00000   0.00018   0.00000   0.00018   0.00000   0.00018   0.00000   0.00018   0.00000   0.00018   0.00000   0.00018   0.00000   0.00073   0.00000   0.00070   0.00000   0.00073   0.00000  -0.00001   0.00000  -0.00001   0.00000  -0.00002   0.00000   0.01020   0.00000  -0.00001   0.00000  -0.00002   0.00000  -0.00001   0.00000  -0.00027   0.00000  -0.00025   0.00000  -0.00028   0.00000   0.19850   0.00000  -0.00025   0.00000  -0.00028   0.00000  -0.00027   0.00000   0.00024   0.00000   0.00022   0.00000   0.00024   0.00000   0.00018   0.00000   0.00018   0.00000   0.00018   0.00000   0.00018   0.00000   0.00018   0.00000   0.00018   0.00000  -0.00001   0.00000  -0.00002   0.00000  -0.00001   0.00000   0.01024   0.00000  -0.00002   0.00000  -0.00001   0.00000  -0.00001   0.00000   0.00024   0.00000   0.00022   0.00000   0.00024   0.00000  -0.00027   0.00000  -0.00028   0.00000  -0.00025   0.00000   0.19848   0.00000  -0.00028   0.00000  -0.00025   0.00000  -0.00027   0.00000   0.00018   0.00000   0.00019   0.00000   0.00019   0.00000   0.00019   0.00000   0.00019   0.00000   0.00018   0.00000   0.00070   0.00000   0.00073   0.00000   0.00070   0.00000   0.00022   0.00000   0.00024   0.00000   0.00022   0.00000  -0.00027   0.00000  -0.00025   0.00000  -0.00028   0.00000   0.19874   0.00000  -0.00025   0.00000  -0.00028   0.00000  -0.00027   0.00000   0.00018   0.00000   0.00019   0.00000   0.00019   0.00000   0.00019   0.00000   0.00019   0.00000   0.00018   0.00000  -0.00027   0.00000  -0.00028   0.00000  -0.00025   0.00000   0.19878   0.00000  -0.00029   0.00000  -0.00025   0.00000  -0.00027   0.00000   0.00022   0.00000   0.00024   0.00000   0.00022   0.00000  -0.00098   0.00000  -0.00098   0.00000  -0.00098   0.00000  -0.00098   0.00000  -0.00098   0.00000  -0.00098   0.00000  -0.00098   0.00000  -0.00098   0.00000  -0.00098   0.00000  -0.00098   0.00000  -0.00098   0.00000  -0.00098
-14.98747   0.00000   0.00509   0.00000   0.00005   0.00000   0.00005   0.00000   0.00005   0.00000   0.00005   0.00000   0.00005   0.00000   0.00005   0.00000   0.00005   0.00000  -0.00057   0.00000   0.00003   0.00000  -0.00053   0.00000  -0.00057   0.00000   0.00005   0.00000   0.00005   0.00000  -0.00056   0.00000  -0.00053   0.00000   0.00003   0.00000  -0.00057   0.00000   0.00005   0.00000   0.00006   0.00000   0.00007   0.00000   0.00006   0.00000   0.00006   0.00000   0.00007   0.00000   0.00006   0.00000  -0.00052   0.00000  -0.00050   0.00000  -0.00052   0.00000  -0.00052   0.00000  -0.00050   0.00000  -0.00052   0.00000   0.00005   0.00000   0.00005   0.00000   0.00005   0.00000   0.00005   0.00000   0.00005   0.00000   0.00005   0.00000   0.00007   0.00000   0.00006   0.00000   0.00007   0.00000   0.00007   0.00000   0.00006   0.00000   0.00007   0.00000   0.00004   0.00000  -0.00055   0.00000  -0.00058   0.00000   0.00005   0.00000  -0.00055   0.00000   0.00004   0.00000   0.00004   0.00000  -0.00055   0.00000   0.00005   0.00000  -0.00059   0.00000  -0.00055   0.00000   0.00004   0.00000  -0.00051   0.00000  -0.00052   0.00000  -0.00051   0.00000  -0.00050   0.00000  -0.00052   0.00000  -0.00050   0.00000   0.00019   0.00000   0.00018   0.00000   0.00018   0.00000   0.00018   0.00000   0.00018   0.00000   0.00019   0.00000   0.00073   0.00000   0.00073   0.00000   0.00073   0.00000  -0.00001   0.00000  -0.00002   0.00000  -0.00001   0.00000   0.01012   0.00000  -0.00002   0.00000  -0.00001   0.00000  -0.00001   0.00000  -0.00027   0.00000  -0.00028   0.00000  -0.00025   0.00000   0.19774   0.00000  -0.00028   0.00000  -0.00025   0.00000  -0.00027   0.00000   0.00023   0.00000   0.00023   0.00000   0.00023   0.00000   0.00019   0.00000   0.00018   0.00000   0.00018   0.00000   0.00018   0.00000   0.00018   0.00000   0.00019   0.00000  -0.00001   0.00000  -0.00001   0.00000  -0.00002   0.00000   0.01018   0.00000  -0.00001   0.00000  -0.00002   0.00000  -0.00001   0.00000   0.00023   0.00000   0.00023   0.00000   0.00023   0.00000  -0.00027   0.00000  -0.00025   0.00000  -0.00028   0.00000   0.19768   0.00000  -0.00025   0.00000  -0.00028   0.00000  -0.00027   0.00000   0.00018   0.00000   0.00019   0.00000   0.00019   0.00000   0.00019   0.00000   0.00019   0.00000   0.00018   0.00000   0.00072   0.00000   0.00072   0.00000   0.00072   0.00000   0.00023   0.00000   0.00023   0.00000   0.00023   0.00000  -0.00027   0.00000  -0.00028   0.00000  -0.00026   0.00000   0.19804   0.00000  -0.00028   0.00000  -0.00026   0.00000  -0.00027   0.00000   0.00018   0.00000   0.00019   0.00000   0.00019   0.00000   0.00019   0.00000   0.00019   0.00000   0.00018   0.00000  -0.00027   0.00000  -0.00026   0.00000  -0.00028   0.00000   0.19807   0.00000  -0.00026   0.00000  -0.00028   0.00000  -0.00027   0.00000   0.00022   0.00000   0.00022   0.00000   0.00022   0.00000  -0.00096   0.00000  -0.00096   0.00000  -0.00096   0.00000  -0.00096   0.00000  -0.00096   0.00000  -0.00096   0.00000  -0.00096   0.00000  -0.00097   0.00000  -0.00097   0.00000  -0.00097   0.00000  -0.00097   0.00000  -0.00096   0.00000   0.00510   0.00000   0.00005   0.00000   0.00005   0.00000   0.00005   0.00000   0.00005   0.00000   0.00005   0.00000   0.00005   0.00000   0.00004   0.00000  -0.00057   0.00000   0.00006   0.00000  -0.00066   0.00000  -0.00057   0.00000   0.00004   0.00000   0.00004   0.00000  -0.00057   0.00000  -0.00066   0.00000   0.00005   0.00000  -0.00057   0.00000   0.00004   0.00000   0.00008   0.00000   0.00005   0.00000   0.00008   0.00000   0.00008   0.00000   0.00005   0.00000   0.00008   0.00000  -0.00052   0.00000  -0.00056   0.00000  -0.00052   0.00000  -0.00052   0.00000  -0.00056   0.00000  -0.00052   0.00000   0.00005   0.00000   0.00005   0.00000   0.00005   0.00000   0.00005   0.00000   0.00005   0.00000   0.00005   0.00000   0.00006   0.00000   0.00008   0.00000   0.00006   0.00000   0.00006   0.00000   0.00008   0.00000   0.00006   0.00000   0.00005   0.00000  -0.00063   0.00000  -0.00054   0.00000   0.00003   0.00000  -0.00063   0.00000   0.00005   0.00000   0.00005   0.00000  -0.00063   0.00000   0.00003   0.00000  -0.00054   0.00000  -0.00063   0.00000   0.00005   0.00000  -0.00055   0.00000  -0.00050   0.00000  -0.00055   0.00000  -0.00055   0.00000  -0.00050   0.00000  -0.00055   0.00000   0.00018   0.00000   0.00018   0.00000   0.00018   0.00000   0.00018   0.00000   0.00018   0.00000   0.00018   0.00000   0.00073   0.00000   0.00070   0.00000   0.00073   0.00000  -0.00001   0.00000  -0.00001   0.00000  -0.00002   0.00000   0.01020   0.00000  -0.00001   0.00000  -0.00002   0.00000  -0.00001   0.00000  -0.00027   0.00000  -0.00025   0.00000  -0.00028   0.00000   0.19850   0.00000  -0.00025   0.00000  -0.00028   0.00000  -0.00027   0.00000   0.00024   0.00000   0.00022   0.00000   0.00024   0.00000   0.00018   0.00000   0.00018   0.00000   0.00018   0.00000   0.00018   0.00000   0.00018   0.00000   0.00018   0.00000  -0.00001   0.00000  -0.00002   0.00000  -0.00001   0.00000   0.01024   0.00000  -0.00002   0.00000  -0.00001   0.00000  -0.00001   0.00000   0.00024   0.00000   0.00022   0.00000   0.00024   0.00000  -0.00027   0.00000  -0.00028   0.00000  -0.00025   0.00000   0.19848   0.00000  -0.00028   0.00000  -0.00025   0.00000  -0.00027   0.00000   0.00018   0.00000   0.00019   0.00000   0.00019   0.00000   0.00019   0.00000   0.00019   0.00000   0.00018   0.00000   0.00070   0.00000   0.00073   0.00000   0.00070   0.00000   0.00022   0.00000   0.00024   0.00000   0.00022   0.00000  -0.00027   0.00000  -0.00025   0.00000  -0.00028   0.00000   0.19874   0.00000  -0.00025   0.00000  -0.00028   0.00000  -0.00027   0.00000   0.00018   0.00000   0.00019   0.00000   0.00019   0.00000   0.00019   0.00000   0.00019   0.00000   0.00018   0.00000  -0.00027   0.00000  -0.00028   0.00000  -0.00025   0.00000   0.19878   0.00000  -0.00029   0.00000  -0.00025   0.00000  -0.00027   0.00000   0.00022   0.00000   0.00024   0.00000   0.00022   0.00000  -0.00098   0.00000  -0.00098   0.00000  -0.00098   0.00000  -0.00098   0.00000  -0.00098   0.00000  -0.00098   0.00000  -0.00098   0.00000  -0.00098   0.00000  -0.00098   0.00000  -0.00098   0.00000  -0.00098   0.00000  -0.00098
-14.93734   0.00000   0.00509   0.00000   0.00005   0.00000   0.00005   0.00000   0.00005   0.00000   0.00005   0.00000   0.00005   0.00000   0.00005   0.00000   0.00005   0.00000  -0.00057   0.00000   0.00003   0.00000  -0.00053   0.00000  -0.00057   0.00000   0.00005   0.00000   0.00005   0.00000  -0.00056   0.00000  -0.00053   0.00000   0.00003   0.00000  -0.00057   0.00000   0.00005   0.00000   0.00006   0.00000   0.00007   0.00000   0.00006   0.00000   0.00006   0.00000   0.00007   0.00000   0.00006   0.00000  -0.00052   0.00000  -0.00050   0.00000  -0.00052   0.00000  -0.00052   0.00000  -0.00050   0.00000  -0.00052   0.00000   0.00005   0.00000   0.00005   0.00000   0.00005   0.00000   0.00005   0.00000   0.00005   0.00000   0.00005   0.00000   0.00007   0.00000   0.00006   0.00000   0.00007   0.00000   0.00007   0.00000   0.00006   0.00000   0.00007   0.00000   0.00004   0.00000  -0.00055   0.00000  -0.00058   0.00000   0.00005   0.00000  -0.00055   0.00000   0.00004   0.00000   0.00004   0.00000  -0.00055   0.00000   0.00005   0.00000  -0.00059   0.00000  -0.00055   0.00000   0.00004   0.00000  -0.00051   0.00000  -0.00052   0.00000  -0.00051   0.00000  -0.00050   0.00000  -0.00052   0.00000  -0.00050   0.00000   0.00019   0.00000   0.00018   0.00000   0.00018   0.00000   0.00018   0.00000   0.00018   0.00000   0.00019   0.00000   0.00073   0.00000   0.00073   0.00000   0.00073   0.00000  -0.00001   0.00000  -0.00002   0.00000  -0.00001   0.00000   0.01012   0.00000  -0.00002   0.00000  -0.00001   0.00000  -0.00001   0.00000  -0.00027   0.00000  -0.00028   0.00000  -0.00025   0.00000   0.19774   0.00000  -0.00028   0.00000  -0.00025   0.00000  -0.00027   0.00000   0.00023   0.00000   0.00023   0.00000   0.00023   0.00000   0.00019   0.00000   0.00018   0.00000   0.00018   0.00000   0.00018   0.00000   0.00018   0.00000   0.00019   0.00000  -0.00001   0.00000  -0.00001   0.00000  -0.00002   0.00000   0.01018   0.00000  -0.00001   0.00000  -0.00002   0.00000  -0.00001   0.00000   0.00023   0.00000   0.00023   0.00000   0.00023   0.00000  -0.00027   0.00000  -0.00025   0.00000  -0.00028   0.00000   0.19768   0.00000  -0.00025   0.00000  -0.00028   0.00000  -0.00027   0.00000   0.00018   0.00000   0.00019   0.00000   0.00019   0.00000   0.00019   0.00000   0.00019   0.00000   0.00018   0.00000   0.00072   0.00000   0.00072   0.00000   0.00072   0.00000   0.00023   0.00000   0.00023   0.00000   0.00023   0.00000  -0.00027   0.00000  -0.00028   0.00000  -0.00026   0.00000   0.19804   0.00000  -0.00028   0.00000  -0.00026   0.00000  -0.00027   0.00000   0.00018   0.00000   0.00019   0.00000   0.00019   0.00000   0.00019   0.00000   0.00019   0.00000   0.00018   0.00000  -0.00027   0.00000  -0.00026   0.00000  -0.00028   0.00000   0.19807   0.00000  -0.00026   0.00000  -0.00028   0.00000  -0.00027   0.00000   0.00022   0.00000   0.00022   0.00000   0.00022   0.00000  -0.00096   0.00000  -0.00096   0.00000  -0.00096   0.00000  -0.00096   0.00000  -0.00096   0.00000  -0.00096   0.00000  -0.00096   0.00000  -0.00097   0.00000  -0.00097   0.00000  -0.00097   0.00000  -0.00097   0.00000  -0.00096   0.00000   0.00510   0.00000   0.00005   0.00000   0.00005   0.00000   0.00005   0.00000   0.00005   0.00000   0.00005   0.00000   0.00005   0.00000   0.00004   0.00000  -0.00057   0.00000   0.00006   0.00000  -0.00066   0.00000  -0.00057   0.00000   0.00004   0.00000   0.00004   0.00000  -0.00057   0.00000  -0.00066   0.00000   0.00005   0.00000  -0.00057   0.00000   0.00004   0.00000   0.00008   0.00000   0.00005   0.00000   0.00008   0.00000   0.00008   0.00000   0.00005   0.00000   0.00008   0.00000  -0.00052   0.00000  -0.00056   0.00000  -0.00052   0.00000  -0.00052   0.00000  -0.00056   0.00000  -0.00052   0.00000   0.00005   0.00000   0.00005   0.00000   0.00005   0.00000   0.00005   0.00000   0.00005   0.00000   0.00005   0.00000   0.00006   0.00000   0.00008   0.00000   0.00006   0.00000   0.00006   0.00000   0.00008   0.00000   0.00006   0.00000   0.00005   0.00000  -0.00063   0.00000  -0.00054   0.00000   0.00003   0.00000  -0.00063   0.00000   0.00005   0.00000   0.00005   0.00000  -0.00063   0.00000   0.00003   0.00000  -0.00054   0.00000  -0.00063   0.00000   0.00005   0.00000  -0.00055   0.00000  -0.00050   0.00000  -0.00055   0.00000  -0.00055   0.00000  -0.00050   0.00000  -0.00055   0.00000   0.00018   0.00000   0.00018   0.00000   0.00018   0.00000   0.00018   0.00000   0.00018   0.00000   0.00018   0.00000   0.00073   0.00000   0.00070   0.00000   0.00073   0.00000  -0.00001   0.00000  -0.00001   0.00000  -0.00002   0.00000   0.01020   0.00000  -0.00001   0.00000  -0.00002   0.00000  -0.00001   0.00000  -0.00027   0.00000  -0.00025   0.00000  -0.00028   0.00000   0.19850   0.00000  -0.00025   0.00000  -0.00028   0.00000  -0.00027   0.00000   0.00024   0.00000   0.00022   0.00000   0.00024   0.00000   0.00018   0.00000   0.00018   0.00000   0.00018   0.00000   0.00018   0.00000   0.00018   0.00000   0.00018   0.00000  -0.00001   0.00000  -0.00002   0.00000  -0.00001   0.00000   0.01024   0.00000  -0.00002   0.00000  -0.00001   0.00000  -0.00001   0.00000   0.00024   0.00000   0.00022   0.00000   0.00024   0.00000  -0.00027   0.00000  -0.00028   0.00000  -0.00025   0.00000   0.19848   0.00000  -0.00028   0.00000  -0.00025   0.00000  -0.00027   0.00000   0.00018   0.00000   0.00019   0.00000   0.00019   0.00000   0.00019   0.00000   0.00019   0.00000   0.00018   0.00000   0.00070   0.00000   0.00073   0.00000   0.00070   0.00000   0.00022   0.00000   0.00024   0.00000   0.00022   0.00000  -0.00027   0.00000  -0.00025   0.00000  -0.00028   0.00000   0.19874   0.00000  -0.00025   0.00000  -0.00028   0.00000  -0.00027   0.00000   0.00018   0.00000   0.00019   0.00000   0.00019   0.00000   0.00019   0.00000   0.00019   0.00000   0.00018   0.00000  -0.00027   0.00000  -0.00028   0.00000  -0.00025   0.00000   0.19878   0.00000  -0.00029   0.00000  -0.00025   0.00000  -0.00027   0.00000   0.00022   0.00000   0.00024   0.00000   0.00022   0.00000  -0.00098   0.00000  -0.00098   0.00000  -0.00098   0.00000  -0.00098   0.00000  -0.00098   0.00000  -0.00098   0.00000  -0.00098   0.00000  -0.00098   0.00000  -0.00098   0.00000  -0.00098   0.00000  -0.00098   0.00000  -0.00098