   8    8    1    2
  7.6814732e+01   3.0915898e-10   3.0915898e-10   9.2800467e-10   5.0000000e-16
            1.000000e-04
  CAR
 DOS and projected DOS file by LOBSTER. Energy is shifted such that the Fermi level lies at 0 eV. 
     10.69143133      -9.35869398   401       5.67890000       1.00000000
-15.03759   0.00000   0.00000   4.00013   4.00015
-14.98747   0.00000   0.00000   4.00013   4.00015
-14.93734   0.00000   0.00000   4.00013   4.00015
-14.88722   0.00000   0.00000   4.00013   4.00015
-14.83709   0.00000   0.00000   4.00013   4.00015
-14.78697   0.00000   0.00000   4.00013   4.00015
-14.73684   0.00000   0.00000   4.00013   4.00015
-14.68672   0.00000   0.00000   4.00013   4.00015
-14.63659   0.00000   0.00000   4.00013   4.00015
-14.58647   0.00000   0.00000   4.00013   4.00015
-14.53634   0.00000   0.00000   4.00013   4.00015
-14.48622   0.00000   0.00000   4.00013   4.00015
-14.43609   0.00000   0.00000   4.00013   4.00015
-14.38596   0.00000   0.00000   4.00013   4.00015
-14.33584   0.00000   0.00000   4.00013   4.00015
-14.28571   0.00000   0.00000   4.00013   4.00015
-14.23559   0.00000   0.00000   4.00013   4.00015
-14.18546   0.00000   0.00000   4.00013   4.00015
-14.13534   0.00000   0.00000   4.00013   4.00015
-14.08521   0.00000   0.00000   4.00013   4.00015
-14.03509   0.00000   0.00000   4.00013   4.00015
-13.98496   0.00000   0.00000   4.00013   4.00015
-13.93484   0.00000   0.00000   4.00013   4.00015
-13.88471   0.00000   0.00000   4.00013   4.00015
-13.83459   0.00000   0.00000   4.00013   4.00015
-13.78446   0.00000   0.00000   4.00013   4.00015
-13.73434   0.00000   0.00000   4.00013   4.00015
-13.68421   0.00000   0.00000   4.00013   4.00015
-13.63409   0.00000   0.00000   4.00013   4.00015
-13.58396   0.00000   0.00000   4.00013   4.00015
-13.53383   0.00000   0.00000   4.00013   4.00015
-13.48371   0.00000   0.00000   4.00013   4.00015
-13.43358   0.00000   0.00000   4.00013   4.00015
-13.38346   0.00000   0.00000   4.00013   4.00015
-13.33333   0.00000   0.00000   4.00013   4.00015
-13.28321   0.00000   0.00000   4.00013   4.00015
-13.23308   0.00000   0.00000   4.00013   4.00015
-13.18296   0.00000   0.00000   4.00013   4.00015
-13.13283   0.00000   0.00000   4.00013   4.00015
-13.08271   0.00000   0.00000   4.00013   4.00015
-13.03258   0.00000   0.00000   4.00013   4.00015
-12.98246   0.00000   0.00000   4.00013   4.00015
-12.93233   0.00000   0.00000   4.00013   4.00015
-12.88221   0.00000   0.00000   4.00013   4.00015
-12.83208   0.00000   0.00000   4.00013   4.00015
-12.78195   0.00000   0.00000   4.00013   4.00015
-12.73183   0.00000   0.00000   4.00013   4.00015
-12.68170   0.00000   0.00000   4.00013   4.00015
-12.63158   0.00000   0.00000   4.00013   4.00015
-12.58145   0.00000   0.00000   4.00013   4.00015
-12.53133   0.00000   0.00000   4.00013   4.00015
-12.48120   0.00000   0.00000   4.00013   4.00015
-12.43108   0.00000   0.00000   4.00013   4.00015
-12.38095   0.00000   0.00000   4.00013   4.00015
-12.33083   0.00000   0.00000   4.00013   4.00015
-12.28070   0.00000   0.00000   4.00013   4.00015
-12.23058   0.00000   0.00000   4.00013   4.00015
-12.18045   0.00000   0.00000   4.00013   4.00015
-12.13033   0.00000   0.00000   4.00013   4.00015
-12.08020   0.00000   0.00000   4.00013   4.00015
-12.03008   0.00000   0.00000   4.00013   4.00015
-11.97995   0.00000   0.00000   4.00013   4.00015
-11.92982   0.00000   0.00000   4.00013   4.00015
-11.87970   0.00000   0.00000   4.00013   4.00015
-11.82957   0.00000   0.00000   4.00013   4.00015
-11.77945   0.00000   0.00000   4.00013   4.00015
-11.72932   0.00000   0.00000   4.00013   4.00015
-11.67920   0.00000   0.00000   4.00013   4.00015
-11.62907   0.00000   0.00000   4.00013   4.00015
-11.57895   0.00000   0.00000   4.00013   4.00015
-11.52882   0.00000   0.00000   4.00013   4.00015
-11.47870   0.00000   0.00000   4.00013   4.00015
-11.42857   0.00000   0.00000   4.00013   4.00015
-11.37845   0.00000   0.00000   4.00013   4.00015
-11.32832   0.00000   0.00000   4.00013   4.00015
-11.27820   0.00000   0.00000   4.00013   4.00015
-11.22807   0.00000   0.00000   4.00013   4.00015
-11.17794   0.00000   0.00000   4.00013   4.00015
-11.12782   0.00000   0.00000   4.00013   4.00015
-11.07769   0.00000   0.00000   4.00013   4.00015
-11.02757   0.00000   0.00000   4.00013   4.00015
-10.97744   0.00000   0.00000   4.00013   4.00015
-10.92732   0.00000   0.00000   4.00013   4.00015
-10.87719   0.00000   0.00000   4.00013   4.00015
-10.82707   0.00000   0.00000   4.00013   4.00015
-10.77694   0.00000   0.00000   4.00013   4.00015
-10.72682   0.00000   0.00000   4.00013   4.00015
-10.67669   0.00000   0.00000   4.00013   4.00015
-10.62657   0.00000   0.00000   4.00013   4.00015
-10.57644   0.00000   0.00000   4.00013   4.00015
-10.52632   0.00000   0.00000   4.00013   4.00015
-10.47619   0.02121   0.00000   4.00119   4.00015
-10.42607   0.09089   0.00000   4.00575   4.00015
-10.37594   0.13037   0.00000   4.01228   4.00015
-10.32581   0.15777   0.00307   4.02019   4.00030
-10.27569   0.19091   0.06128   4.02976   4.00337
-10.22556   0.22030   0.11612   4.04080   4.00919
-10.17544   0.24265   0.14604   4.05297   4.01651
-10.12531   0.26855   0.17495   4.06643   4.02528
-10.07519   0.29316   0.20867   4.08112   4.03574
-10.02506   0.31725   0.23172   4.09702   4.04736
 -9.97494   0.34432   0.25598   4.11428   4.06019
 -9.92481   0.37150   0.28205   4.13290   4.07433
 -9.87469   0.39659   0.30520   4.15278   4.08963
 -9.82456   0.42327   0.33103   4.17400   4.10622
 -9.77444   0.45126   0.35825   4.19662   4.12418
 -9.72431   0.47993   0.38383   4.22068   4.14342
 -9.67419   0.51015   0.40926   4.24625   4.16393
 -9.62406   0.54264   0.43653   4.27345   4.18581
 -9.57393   0.57808   0.46461   4.30242   4.20910
 -9.52381   0.61491   0.49359   4.33325   4.23384
 -9.47368   0.65346   0.52461   4.36600   4.26014
 -9.42356   0.69595   0.55878   4.40089   4.28815
 -9.37343   0.73960   0.59487   4.43796   4.31796
 -9.32331   0.79486   0.63179   4.47780   4.34963
 -9.27318   0.87312   0.67175   4.52157   4.38330
 -9.22306   0.95164   0.71438   4.56927   4.41911
 -9.17293   0.99435   0.76478   4.61911   4.45745
 -9.12281   1.02823   0.84039   4.67065   4.49957
 -9.07268   1.06605   0.91844   4.72409   4.54561
 -9.02256   1.10793   0.96016   4.77962   4.59374
 -8.97243   1.15873   0.99162   4.83770   4.64344
 -8.92231   1.21788   1.02545   4.89875   4.69484
 -8.87218   1.31837   1.06132   4.96484   4.74804
 -8.82206   1.36680   1.10286   5.03335   4.80332
 -8.77193   1.34975   1.14910   5.10100   4.86092
 -8.72180   1.31259   1.20763   5.16680   4.92146
 -8.67168   1.30338   1.30214   5.23213   4.98673
 -8.62155   1.48989   1.32523   5.30681   5.05315
 -8.57143   1.69400   1.28447   5.39172   5.11754
 -8.52130   1.92634   1.24622   5.48828   5.18001
 -8.47118   2.14345   1.31235   5.59572   5.24579
 -8.42105   2.05747   1.43016   5.69885   5.31747
 -8.37093   1.96416   1.57778   5.79731   5.39656
 -8.32080   2.05289   1.72348   5.90021   5.48295
 -8.27068   1.74357   1.78929   5.98761   5.57264
 -8.22055   1.01513   1.74264   6.03849   5.65999
 -8.17043   0.86402   1.67811   6.08180   5.74411
 -8.12030   1.03128   1.68492   6.13349   5.82856
 -8.07018   1.47208   1.87249   6.20728   5.92242
 -8.02005   1.82869   1.98665   6.29894   6.02200
 -7.96992   2.03682   1.23572   6.40104   6.08394
 -7.91980   2.40773   1.13504   6.52173   6.14084
 -7.86967   2.42324   1.28224   6.64319   6.20511
 -7.81955   2.34019   1.55222   6.76050   6.28292
 -7.76942   2.26700   1.76000   6.87413   6.37114
 -7.71930   2.34730   2.14851   6.99179   6.47883
 -7.66917   2.11344   2.06806   7.09773   6.58249
 -7.61905   1.71207   2.00770   7.18355   6.68313
 -7.56892   1.38393   2.06587   7.25292   6.78668
 -7.51880   1.17097   2.32942   7.31161   6.90345
 -7.46867   1.02947   2.15219   7.36321   7.01133
 -7.41855   1.00879   1.86350   7.41378   7.10473
 -7.36842   1.14726   1.54107   7.47129   7.18198
 -7.31830   1.48464   1.24453   7.54570   7.24436
 -7.26817   1.84548   1.08283   7.63821   7.29864
 -7.21805   1.90600   1.08410   7.73375   7.35298
 -7.16792   2.14552   1.13684   7.84129   7.40997
 -7.11779   2.46315   1.31107   7.96476   7.47568
 -7.06767   2.88843   1.57580   8.10954   7.55467
 -7.01754   3.12510   1.72014   8.26619   7.64089
 -6.96742   3.85643   1.73911   8.45949   7.72807
 -6.91729   3.22109   1.88130   8.62095   7.82237
 -6.86717   3.10811   2.13561   8.77675   7.92942
 -6.81704   2.73627   2.39527   8.91390   8.04948
 -6.76692   2.49704   2.54554   9.03907   8.17707
 -6.71679   2.35875   2.75150   9.15730   8.31499
 -6.66667   2.21399   3.16024   9.26828   8.47340
 -6.61654   2.10761   3.11160   9.37392   8.62937
 -6.56642   2.03221   2.78037   9.47579   8.76874
 -6.51629   1.98364   2.84065   9.57522   8.91113
 -6.46617   1.95937   2.79619   9.67343   9.05129
 -6.41604   1.97149   2.58603   9.77225   9.18091
 -6.36591   2.02178   2.36949   9.87360   9.29968
 -6.31579   2.04964   2.25069   9.97634   9.41250
 -6.26566   2.09215   2.20056  10.08121   9.52280
 -6.21554   2.22797   2.14561  10.19288   9.63035
 -6.16541   2.45277   2.10739  10.31583   9.73599
 -6.11529   2.90127   2.10114  10.46126   9.84131
 -6.06516   3.34717   2.10716  10.62903   9.94693
 -6.01504   3.38216   2.10880  10.79857  10.05263
 -5.96491   3.39121   2.11767  10.96855  10.15878
 -5.91479   3.37995   2.24306  11.13797  10.27122
 -5.86466   2.66007   2.42497  11.27131  10.39277
 -5.81454   2.36350   2.54612  11.38978  10.52039
 -5.76441   2.08591   3.07421  11.49434  10.67449
 -5.71429   1.70038   3.39384  11.57957  10.84461
 -5.66416   1.40202   3.29794  11.64985  11.00992
 -5.61404   1.10939   3.18230  11.70545  11.16943
 -5.56391   1.07935   2.73069  11.75956  11.30631
 -5.51378   0.94381   2.47307  11.80687  11.43027
 -5.46366   0.90728   2.04357  11.85234  11.53271
 -5.41353   0.91720   1.66548  11.89832  11.61619
 -5.36341   0.85380   1.39395  11.94111  11.68606
 -5.31328   0.84251   1.14733  11.98335  11.74357
 -5.26316   0.87675   0.99546  12.02729  11.79347
 -5.21303   0.88556   0.88599  12.07168  11.83788
 -5.16291   0.91169   0.72449  12.11738  11.87419
 -5.11278   1.00997   0.58730  12.16801  11.90363
 -5.06266   1.14714   0.71088  12.22551  11.93927
 -5.01253   1.14361   0.78637  12.28283  11.97868
 -4.96241   1.18697   0.78522  12.34233  12.01804
 -4.91228   1.29917   0.84655  12.40745  12.06048
 -4.86216   1.81859   0.85291  12.49861  12.10323
 -4.81203   1.83811   0.89385  12.59074  12.14803
 -4.76190   1.67961   0.93616  12.67493  12.19496
 -4.71178   1.62981   0.89903  12.75663  12.24002
 -4.66165   1.60207   0.89167  12.83693  12.28472
 -4.61153   1.68687   0.92005  12.92149  12.33084
 -4.56140   1.86457   0.95902  13.01495  12.37891
 -4.51128   2.15353   1.04406  13.12290  12.43124
 -4.46115   2.34487   1.12292  13.24043  12.48753
 -4.41103   2.44328   1.26921  13.36290  12.55115
 -4.36090   2.20006   1.43666  13.47318  12.62316
 -4.31078   1.73296   1.64142  13.56005  12.70544
 -4.26065   1.50911   1.70537  13.63569  12.79092
 -4.21053   1.51156   1.63901  13.71146  12.87307
 -4.16040   1.60341   1.61076  13.79183  12.95381
 -4.11028   1.91049   1.58686  13.88759  13.03336
 -4.06015   2.69262   1.57120  14.02256  13.11211
 -4.01003   2.07653   1.54963  14.12665  13.18979
 -3.95990   2.20445   1.55513  14.23715  13.26774
 -3.90977   3.14790   1.57960  14.39494  13.34692
 -3.85965   3.59104   1.63245  14.57494  13.42875
 -3.80952   2.91264   1.64642  14.72094  13.51127
 -3.75940   2.19647   1.66550  14.83104  13.59476
 -3.70927   1.79287   1.96117  14.92090  13.69306
 -3.65915   1.67949   2.38253  15.00509  13.81249
 -3.60902   1.62289   2.26455  15.08644  13.92600
 -3.55890   1.61511   2.05821  15.16739  14.02917
 -3.50877   1.64902   1.81533  15.25005  14.12016
 -3.45865   1.72787   2.06948  15.33666  14.22389
 -3.40852   1.95385   3.47786  15.43460  14.39822
 -3.35840   1.68321   3.28558  15.51897  14.56291
 -3.30827   1.28094   2.75868  15.58318  14.70119
 -3.25815   1.04066   2.21452  15.63534  14.81220
 -3.20802   0.88924   2.09527  15.67992  14.91722
 -3.15789   0.81587   2.19252  15.72081  15.02712
 -3.10777   0.77003   2.16569  15.75941  15.13568
 -3.05764   0.75746   1.91169  15.79738  15.23150
 -3.00752   0.71911   1.59469  15.83342  15.31144
 -2.95739   0.62876   1.45649  15.86494  15.38444
 -2.90727   0.50774   1.36720  15.89039  15.45297
 -2.85714   0.38087   1.30604  15.90948  15.51844
 -2.80702   0.29753   1.21730  15.92440  15.57946
 -2.75689   0.25332   1.16713  15.93709  15.63796
 -2.70677   0.21796   1.12122  15.94802  15.69416
 -2.65664   0.19252   0.97493  15.95767  15.74303
 -2.60652   0.17018   0.74431  15.96620  15.78034
 -2.55639   0.26907   0.59570  15.97969  15.81020
 -2.50627   0.57268   0.51187  16.00839  15.83586
 -2.45614   0.84324   0.44703  16.05066  15.85826
 -2.40602   1.17374   0.39197  16.10949  15.87791
 -2.35589   1.65160   0.34570  16.19228  15.89524
 -2.30576   2.28747   0.30655  16.30694  15.91061
 -2.25564   3.28890   0.27199  16.47180  15.92424
 -2.20551   4.91468   0.23944  16.71815  15.93624
 -2.15539   7.48572   0.21002  17.09337  15.94677
 -2.10526  10.06062   0.18596  17.59766  15.95609
 -2.05514   7.44387   0.16439  17.97079  15.96433
 -2.00501   9.29235   0.14327  18.43657  15.97151
 -1.95489   8.54472   0.15806  18.86488  15.97943
 -1.90476   7.28663   0.45545  19.23012  16.00226
 -1.85464   7.07496   0.71951  19.58476  16.03833
 -1.80451   8.38152   0.99311  20.00488  16.08811
 -1.75439   7.51019   1.32235  20.38134  16.15439
 -1.70426   6.17797   1.71769  20.69101  16.24049
 -1.65414  11.11176   2.23488  21.24799  16.35252
 -1.60401   7.58040   2.96115  21.62796  16.50095
 -1.55388   4.27767   4.12272  21.84238  16.70760
 -1.50376   2.71087   4.72312  21.97826  16.94435
 -1.45363   2.26916   4.98889  22.09200  17.19442
 -1.40351   1.49502   8.05802  22.16694  17.59833
 -1.35338   1.65255   6.92753  22.24978  17.94557
 -1.30326   2.11401   5.60730  22.35574  18.22664
 -1.25313   2.52261   4.83225  22.48219  18.46886
 -1.20301   3.00569   4.11791  22.63285  18.67527
 -1.15288   3.43519   5.45592  22.80504  18.94875
 -1.10276   3.31105   5.70410  22.97101  19.23467
 -1.05263   3.02394   6.63535  23.12258  19.56727
 -1.00251   2.83967   8.73185  23.26492  20.00495
 -0.95238   2.75602   7.98499  23.40307  20.40520
 -0.90226   2.62654  12.02888  23.53472  21.00815
 -0.85213   2.21259   7.72815  23.64563  21.39553
 -0.80201   1.86583   6.34991  23.73916  21.71382
 -0.75188   1.59222   3.74485  23.81897  21.90153
 -0.70175   1.20046   1.67385  23.87914  21.98544
 -0.65163   0.74555   0.30717  23.91651  22.00083
 -0.60150   0.50071   0.00000  23.94161  22.00083
 -0.55138   0.34782   0.00000  23.95904  22.00083
 -0.50125   0.33021   0.00000  23.97560  22.00083
 -0.45113   0.98445   0.04747  24.02494  22.00321
 -0.40100   2.13986   0.47536  24.13220  22.02704
 -0.35088   2.73632   1.08106  24.26936  22.08123
 -0.30075   3.13060   1.63490  24.42628  22.16318
 -0.25063   4.19929   1.81886  24.63677  22.25435
 -0.20050   4.59529   1.68146  24.86711  22.33863
 -0.15038   3.55805   1.44074  25.04546  22.41085
 -0.10025   2.83995   1.33067  25.18782  22.47755
 -0.05013   2.18675   1.34184  25.29743  22.54481
  0.00000   1.79944   1.38416  25.38763  22.61419
  0.05013   1.62147   1.37385  25.46890  22.68306
  0.10025   1.47012   1.37180  25.54259  22.75182
  0.15038   1.38007   1.38367  25.61177  22.82118
  0.20050   1.30537   1.45214  25.67720  22.89396
  0.25063   1.24278   1.61576  25.73950  22.97496
  0.30075   1.21333   1.65666  25.80031  23.05800
  0.35088   1.26326   1.74095  25.86364  23.14526
  0.40100   1.16106   1.88993  25.92183  23.24000
  0.45113   0.80387   2.06617  25.96213  23.34356
  0.50125   0.44147   2.39157  25.98426  23.46344
  0.55138   0.23385   3.26173  25.99598  23.62694
  0.60150   0.09472   2.86108  26.00073  23.77035
  0.65163   0.00416   2.16782  26.00094  23.87901
  0.70175   0.00000   1.38715  26.00094  23.94854
  0.75188   0.00000   0.65814  26.00094  23.98153
  0.80201   0.00000   0.66730  26.00094  24.01498
  0.85213   0.00000   0.82506  26.00094  24.05634
  0.90226   0.00000   1.07815  26.00094  24.11038
  0.95238   0.00000   1.35991  26.00094  24.17855
  1.00251   0.00000   1.75487  26.00094  24.26651
  1.05263   0.00000   2.16724  26.00094  24.37514
  1.10276   0.00000   2.72566  26.00094  24.51177
  1.15288   0.00000   2.90408  26.00094  24.65734
  1.20301   0.00000   3.15995  26.00094  24.81573
  1.25313   0.00000   3.55629  26.00094  24.99399
  1.30326   0.00000   3.97829  26.00094  25.19340
  1.35338   0.00000   4.75420  26.00094  25.43171
  1.40351   0.00000   3.71189  26.00094  25.61777
  1.45363   0.00000   1.98754  26.00094  25.71739
  1.50376   0.00000   1.62106  26.00094  25.79865
  1.55388   0.00000   1.49996  26.00094  25.87384
  1.60401   0.00000   1.24981  26.00094  25.93648
  1.65414   0.00000   0.85323  26.00094  25.97925
  1.70426   0.00000   0.34047  26.00094  25.99632
  1.75439   0.00000   0.09246  26.00094  26.00095
  1.80451   0.00000   0.00096  26.00094  26.00100
  1.85464   0.00000   0.00000  26.00094  26.00100
  1.90476   0.00000   0.00000  26.00094  26.00100
  1.95489   0.00000   0.00000  26.00094  26.00100
  2.00501   0.00000   0.00000  26.00094  26.00100
  2.05514   0.00000   0.00000  26.00094  26.00100
  2.10526   0.01946   0.00000  26.00191  26.00100
  2.15539   0.08258   0.00000  26.00605  26.00100
  2.20551   0.19993   0.00000  26.01607  26.00100
  2.25564   0.54733   0.00222  26.04351  26.00111
  2.30576   0.69123   0.03691  26.07816  26.00296
  2.35589   0.62138   0.08742  26.10930  26.00734
  2.40602   0.58527   0.14129  26.13864  26.01443
  2.45614   0.58367   0.19404  26.16790  26.02415
  2.50627   0.59499   0.25072  26.19772  26.03672
  2.55639   0.60080   0.44921  26.22783  26.05924
  2.60652   0.60076   0.78336  26.25795  26.09850
  2.65664   0.60351   0.72660  26.28820  26.13492
  2.70677   0.60416   0.62962  26.31848  26.16648
  2.75689   0.60314   0.62058  26.34872  26.19759
  2.80702   0.60752   0.62370  26.37917  26.22885
  2.85714   0.61353   0.62665  26.40992  26.26026
  2.90727   0.62426   0.61870  26.44121  26.29128
  2.95739   0.63799   0.61127  26.47319  26.32192
  3.00752   0.65325   0.61154  26.50594  26.35257
  3.05764   0.66945   0.61384  26.53949  26.38334
  3.10777   0.68995   0.61946  26.57408  26.41439
  3.15789   0.72692   0.63213  26.61051  26.44608
  3.20802   0.76895   0.64820  26.64906  26.47857
  3.25815   0.82753   0.66445  26.69054  26.51187
  3.30827   0.96268   0.68196  26.73879  26.54606
  3.35840   0.99793   0.72305  26.78881  26.58230
  3.40852   1.03922   0.76986  26.84090  26.62089
  3.45865   1.09738   0.89132  26.89591  26.66557
  3.50877   1.53460   0.91775  26.97283  26.71157
  3.55890   1.88636   0.95336  27.06739  26.75936
  3.60902   1.32999   0.98261  27.13405  26.80861
  3.65915   1.15780   1.07745  27.19209  26.86262
  3.70927   0.96282   1.47768  27.24035  26.93669
  3.75940   0.86873   1.73338  27.28390  27.02357
  3.80952   0.83528   1.37723  27.32577  27.09261
  3.85965   0.80393   1.17881  27.36606  27.15169
  3.90977   0.75908   1.05054  27.40411  27.20435
  3.95990   0.71306   0.90772  27.43985  27.24985
  4.01003   0.73354   0.85077  27.47662  27.29250
  4.06015   0.64705   0.83294  27.50906  27.33425
  4.11028   0.74273   0.81471  27.54629  27.37509
  4.16040   0.83853   0.78510  27.58832  27.41444
  4.21053   0.91248   0.73506  27.63406  27.45128
  4.26065   1.01617   0.70307  27.68499  27.48653
  4.31078   1.23513   0.68935  27.74690  27.52108
  4.36090   1.42233   0.68923  27.81820  27.55563
  4.41103   1.39772   0.83774  27.88826  27.59762
  4.46115   1.35215   0.98496  27.95604  27.64699
  4.51128   1.32518   1.07832  28.02246  27.70104
  4.56140   1.34439   1.14519  28.08985  27.75845
  4.61153   1.35767   1.16718  28.15790  27.81695
  4.66165   1.35811   1.26178  28.22598  27.88020
  4.71178   1.40393   1.31919  28.29635  27.94632
  4.76190   1.50336   1.29190  28.37171  28.01108
  4.81203   1.35470   1.31023  28.43961  28.07676
  4.86216   1.22570   1.37513  28.50105  28.14568
  4.91228   1.13369   1.56073  28.55788  28.22392
  4.96241   1.06117   1.40842  28.61107  28.29451
  5.01253   1.04096   1.32779  28.66325  28.36107
      5.01253133     -15.03759398   401       5.67890000       1.00000000; CN2; X 1a1g 1a1u 2a1g 3a1g 1e1u 1e1g 2a1u 3a1u 4a1g 2e1u 5a1g 4a1u 
-15.03759   0.00000   0.00000   0.00000   0.00000   0.00000   0.00000   0.00000   0.00000   0.00000   0.00000   0.00000   0.00000   0.00000   0.00000   0.00000   0.00000   0.00000   0.00000   0.00000   0.00000   0.00000   0.00000   0.00000   0.00000
-14.98747   0.00000   0.00000   0.00000   0.00000   0.00000   0.00000   0.00000   0.00000   0.00000   0.00000   0.00000   0.00000   0.00000   0.00000   0.00000   0.00000   0.00000   0.00000   0.00000   0.00000   0.00000   0.00000   0.00000   0.00000
-14.93734   0.00000   0.00000   0.00000   0.00000   0.00000   0.00000   0.00000   0.00000   0.00000   0.00000   0.00000   0.00000   0.00000   0.00000   0.00000   0.00000   0.00000   0.00000   0.00000   0.00000   0.00000   0.00000   0.00000   0.00000
-14.88722   0.00000   0.00000   0.00000   0.00000   0.00000   0.00000   0.00000   0.00000   0.00000   0.00000   0.00000   0.00000   0.00000   0.00000   0.00000   0.00000   0.00000   0.00000   0.00000   0.00000   0.00000   0.00000   0.00000   0.00000
-14.83709   0.00000   0.00000   0.00000   0.00000   0.00000   0.00000   0.00000   0.00000   0.00000   0.00000   0.00000   0.00000   0.00000   0.00000   0.00000   0.00000   0.00000   0.00000   0.00000   0.00000   0.00000   0.00000   0.00000   0.00000
-14.78697   0.00000   0.00000   0.00000   0.00000   0.00000   0.00000   0.00000   0.00000   0.00000   0.00000   0.00000   0.00000   0.00000   0.00000   0.00000   0.00000   0.00000   0.00000   0.00000   0.00000   0.00000   0.00000   0.00000   0.00000
-14.73684   0.00000   0.00000   0.00000   0.00000   0.00000   0.00000   0.00000   0.00000   0.00000   0.00000   0.00000   0.00000   0.00000   0.00000   0.00000   0.00000   0.00000   0.00000   0.00000   0.00000   0.00000   0.00000   0.00000   0.00000
-14.68672   0.00000   0.00000   0.00000   0.00000   0.00000   0.00000   0.00000   0.00000   0.00000   0.00000   0.00000   0.00000   0.00000   0.00000   0.00000   0.00000   0.00000   0.00000   0.00000   0.00000   0.00000   0.00000   0.00000   0.00000
-14.63659   0.00000   0.00000   0.00000   0.00000   0.00000   0.00000   0.00000   0.00000   0.00000   0.00000   0.00000   0.00000   0.00000   0.00000   0.00000   0.00000   0.00000   0.00000   0.00000   0.00000   0.00000   0.00000   0.00000   0.00000
-14.58647   0.00000   0.00000   0.00000   0.00000   0.00000   0.00000   0.00000   0.00000   0.00000   0.00000   0.00000   0.00000   0.00000   0.00000   0.00000   0.00000   0.00000   0.00000   0.00000   0.00000   0.00000   0.00000   0.00000   0.00000
-14.53634   0.00000   0.00000   0.00000   0.00000   0.00000   0.00000   0.00000   0.00000   0.00000   0.00000   0.00000   0.00000   0.00000   0.00000   0.00000   0.00000   0.00000   0.00000   0.00000   0.00000   0.00000   0.00000   0.00000   0.00000
-14.48622   0.00000   0.00000   0.00000   0.00000   0.00000   0.00000   0.00000   0.00000   0.00000   0.00000   0.00000   0.00000   0.00000   0.00000   0.00000   0.00000   0.00000   0.00000   0.00000   0.00000   0.00000   0.00000   0.00000   0.00000
-14.43609   0.00000   0.00000   0.00000   0.00000   0.00000   0.00000   0.00000   0.00000   0.00000   0.00000   0.00000   0.00000   0.00000   0.00000   0.00000   0.00000   0.00000   0.00000   0.00000   0.00000   0.00000   0.00000   0.00000   0.00000
-14.38596   0.00000   0.00000   0.00000   0.00000   0.00000   0.00000   0.00000   0.00000   0.00000   0.00000   0.00000   0.00000   0.00000   0.00000   0.00000   0.00000   0.00000   0.00000   0.00000   0.00000   0.00000   0.00000   0.00000   0.00000
-14.33584   0.00000   0.00000   0.00000   0.00000   0.00000   0.00000   0.00000   0.00000   0.00000   0.00000   0.00000   0.00000   0.00000   0.00000   0.00000   0.00000   0.00000   0.00000   0.00000   0.00000   0.00000   0.00000   0.00000   0.00000
-14.28571   0.00000   0.00000   0.00000   0.00000   0.00000   0.00000   0.00000   0.00000   0.00000   0.00000   0.00000   0.00000   0.00000   0.00000   0.00000   0.00000   0.00000   0.00000   0.00000   0.00000   0.00000   0.00000   0.00000   0.00000
-14.23559   0.00000   0.00000   0.00000   0.00000   0.00000   0.00000   0.00000   0.00000   0.00000   0.00000   0.00000   0.00000   0.00000   0.00000   0.00000   0.00000   0.00000   0.00000   0.00000   0.00000   0.00000   0.00000   0.00000   0.00000
-14.18546   0.00000   0.00000   0.00000   0.00000   0.00000   0.00000   0.00000   0.00000   0.00000   0.00000   0.00000   0.00000   0.00000   0.00000   0.00000   0.00000   0.00000   0.00000   0.00000   0.00000   0.00000   0.00000   0.00000   0.00000
-14.13534   0.00000   0.00000   0.00000   0.00000   0.00000   0.00000   0.00000   0.00000   0.00000   0.00000   0.00000   0.00000   0.00000   0.00000   0.00000   0.00000   0.00000   0.00000   0.00000   0.00000   0.00000   0.00000   0.00000   0.00000
-14.08521   0.00000   0.00000   0.00000   0.00000   0.00000   0.00000   0.00000   0.00000   0.00000   0.00000   0.00000   0.00000   0.00000   0.00000   0.00000   0.00000   0.00000   0.00000   0.00000   0.00000   0.00000   0.00000   0.00000   0.00000
-14.03509   0.00000   0.00000   0.00000   0.00000   0.00000   0.00000   0.00000   0.00000   0.00000   0.00000   0.00000   0.00000   0.00000   0.00000   0.00000   0.00000   0.00000   0.00000   0.00000   0.00000   0.00000   0.00000   0.00000   0.00000
-13.98496   0.00000   0.00000   0.00000   0.00000   0.00000   0.00000   0.00000   0.00000   0.00000   0.00000   0.00000   0.00000   0.00000   0.00000   0.00000   0.00000   0.00000   0.00000   0.00000   0.00000   0.00000   0.00000   0.00000   0.00000
-13.93484   0.00000   0.00000   0.00000   0.00000   0.00000   0.00000   0.00000   0.00000   0.00000   0.00000   0.00000   0.00000   0.00000   0.00000   0.00000   0.00000   0.00000   0.00000   0.00000   0.00000   0.00000   0.00000   0.00000   0.00000
-13.88471   0.00000   0.00000   0.00000   0.00000   0.00000   0.00000   0.00000   0.00000   0.00000   0.00000   0.00000   0.00000   0.00000   0.00000   0.00000   0.00000   0.00000   0.00000   0.00000   0.00000   0.00000   0.00000   0.00000   0.00000
-13.83459   0.00000   0.00000   0.00000   0.00000   0.00000   0.00000   0.00000   0.00000   0.00000   0.00000   0.00000   0.00000   0.00000   0.00000   0.00000   0.00000   0.00000   0.00000   0.00000   0.00000   0.00000   0.00000   0.00000   0.00000
-13.78446   0.00000   0.00000   0.00000   0.00000   0.00000   0.00000   0.00000   0.00000   0.00000   0.00000   0.00000   0.00000   0.00000   0.00000   0.00000   0.00000   0.00000   0.00000   0.00000   0.00000   0.00000   0.00000   0.00000   0.00000
-13.73434   0.00000   0.00000   0.00000   0.00000   0.00000   0.00000   0.00000   0.00000   0.00000   0.00000   0.00000   0.00000   0.00000   0.00000   0.00000   0.00000   0.00000   0.00000   0.00000   0.00000   0.00000   0.00000   0.00000   0.00000
-13.68421   0.00000   0.00000   0.00000   0.00000   0.00000   0.00000   0.00000   0.00000   0.00000   0.00000   0.00000   0.00000   0.00000   0.00000   0.00000   0.00000   0.00000   0.00000   0.00000   0.00000   0.00000   0.00000   0.00000   0.00000
-13.63409   0.00000   0.00000   0.00000   0.00000   0.00000   0.00000   0.00000   0.00000   0.00000   0.00000   0.00000   0.00000   0.00000   0.00000   0.00000   0.00000   0.00000   0.00000   0.00000   0.00000   0.00000   0.00000   0.00000   0.00000
-13.58396   0.00000   0.00000   0.00000   0.00000   0.00000   0.00000   0.00000   0.00000   0.00000   0.00000   0.00000   0.00000   0.00000   0.00000   0.00000   0.00000   0.00000   0.00000   0.00000   0.00000   0.00000   0.00000   0.00000   0.00000
-13.53383   0.00000   0.00000   0.00000   0.00000   0.00000   0.00000   0.00000   0.00000   0.00000   0.00000   0.00000   0.00000   0.00000   0.00000   0.00000   0.00000   0.00000   0.00000   0.00000   0.00000   0.00000   0.00000   0.00000   0.00000
-13.48371   0.00000   0.00000   0.00000   0.00000   0.00000   0.00000   0.00000   0.00000   0.00000   0.00000   0.00000   0.00000   0.00000   0.00000   0.00000   0.00000   0.00000   0.00000   0.00000   0.00000   0.00000   0.00000   0.00000   0.00000
-13.43358   0.00000   0.00000   0.00000   0.00000   0.00000   0.00000   0.00000   0.00000   0.00000   0.00000   0.00000   0.00000   0.00000   0.00000   0.00000   0.00000   0.00000   0.00000   0.00000   0.00000   0.00000   0.00000   0.00000   0.00000
-13.38346   0.00000   0.00000   0.00000   0.00000   0.00000   0.00000   0.00000   0.00000   0.00000   0.00000   0.00000   0.00000   0.00000   0.00000   0.00000   0.00000   0.00000   0.00000   0.00000   0.00000   0.00000   0.00000   0.00000   0.00000
-13.33333   0.00000   0.00000   0.00000   0.00000   0.00000   0.00000   0.00000   0.00000   0.00000   0.00000   0.00000   0.00000   0.00000   0.00000   0.00000   0.00000   0.00000   0.00000   0.00000   0.00000   0.00000   0.00000   0.00000   0.00000
-13.28321   0.00000   0.00000   0.00000   0.00000   0.00000   0.00000   0.00000   0.00000   0.00000   0.00000   0.00000   0.00000   0.00000   0.00000   0.00000   0.00000   0.00000   0.00000   0.00000   0.00000   0.00000   0.00000   0.00000   0.00000
-13.23308   0.00000   0.00000   0.00000   0.00000   0.00000   0.00000   0.00000   0.00000   0.00000   0.00000   0.00000   0.00000   0.00000   0.00000   0.00000   0.00000   0.00000   0.00000   0.00000   0.00000   0.00000   0.00000   0.00000   0.00000
-13.18296   0.00000   0.00000   0.00000   0.00000   0.00000   0.00000   0.00000   0.00000   0.00000   0.00000   0.00000   0.00000   0.00000   0.00000   0.00000   0.00000   0.00000   0.00000   0.00000   0.00000   0.00000   0.00000   0.00000   0.00000