  COHP#    atomMU    atomNU   distance   translation   ICOHP (at) eF    ICOHP (at) eF 
                                                          for spin 1       for spin 2 
      1       Ni1       Ni1    3.09159    -1  -1   0        -0.03208         -0.03400 
      2       Ni1       Ni1    3.09159     0  -1   0        -0.03214         -0.03408 
      3       Ni1       Ni1    3.09159    -1   0   0        -0.03213         -0.03408 
      4       Ni1       Ni1    3.09159     1   0   0        -0.03213         -0.03408 
      5       Ni1       Ni1    3.09159     0   1   0        -0.03214         -0.03408 
      6       Ni1       Ni1    3.09159     1   1   0        -0.03208         -0.03400 
      7       Ni1        N3    3.73072    -2  -1   0        -0.00137         -0.00146 
      8       Ni1        N3    2.08814    -1  -1   0        -0.60640         -0.86286 
      9       Ni1        N3    3.73072     0  -1   0        -0.00126         -0.00148 
     10       Ni1        N3    2.08814    -1   0   0        -0.60591         -0.86369 
     11       Ni1        N3    2.08814     0   0   0        -0.60640         -0.86285 
     12       Ni1        N3    3.73072     0   1   0        -0.00137         -0.00147 
     13       Ni1        N4    3.73072    -1  -2   0        -0.00136         -0.00146 
     14       Ni1        N4    2.08814    -1  -1   0        -0.60626         -0.86298 
     15       Ni1        N4    2.08814     0  -1   0        -0.60576         -0.86381 
     16       Ni1        N4    3.73072    -1   0   0        -0.00125         -0.00148 
     17       Ni1        N4    2.08814     0   0   0        -0.60627         -0.86298 
     18       Ni1        N4    3.73072     1   0   0        -0.00136         -0.00146 
     19       Ni1        N5    3.97914    -1  -1   0        -0.00886         -0.00802 
     20       Ni1        N5    3.97914     0  -1   0        -0.00879         -0.00755 
     21       Ni1        N5    3.97914     0   0   0        -0.00886         -0.00802 
     22       Ni1        N6    3.97914    -1  -1   0        -0.00884         -0.00802 
     23       Ni1        N6    3.97914    -1   0   0        -0.00877         -0.00755 
     24       Ni1        N6    3.97914     0   0   0        -0.00883         -0.00802 
     25       Ni1        C7    2.92719    -1  -1   0        -0.03434         -0.02923 
     26       Ni1        C7    2.92719    -1   0   0        -0.03427         -0.02879 
     27       Ni1        C7    2.92719     0   0   0        -0.03433         -0.02923 
     28       Ni1        C8    2.92719    -1  -1   0        -0.03435         -0.02926 
     29       Ni1        C8    2.92719     0  -1   0        -0.03429         -0.02882 
     30       Ni1        C8    2.92719     0   0   0        -0.03435         -0.02925 
     31       Ni2       Ni2    3.09159    -1  -1   0        -0.03210         -0.03404 
     32       Ni2       Ni2    3.09159     0  -1   0        -0.03209         -0.03400 
     33       Ni2       Ni2    3.09159    -1   0   0        -0.03209         -0.03401 
     34       Ni2       Ni2    3.09159     1   0   0        -0.03209         -0.03401 
     35       Ni2       Ni2    3.09159     0   1   0        -0.03209         -0.03400 
     36       Ni2       Ni2    3.09159     1   1   0        -0.03210         -0.03404 
     37       Ni2        N3    3.97914    -1  -1   0        -0.00875         -0.00769 
     38       Ni2        N3    3.97914    -1   0   0        -0.00880         -0.00815 
     39       Ni2        N3    3.97914     0   0   0        -0.00874         -0.00770 
     40       Ni2        N4    3.97914    -1  -1  -1        -0.00875         -0.00771 
     41       Ni2        N4    3.97914     0  -1  -1        -0.00881         -0.00816 
     42       Ni2        N4    3.97914     0   0  -1        -0.00876         -0.00771 
     43       Ni2        N5    3.73072    -1  -2  -1        -0.00130         -0.00145 
     44       Ni2        N5    2.08814    -1  -1  -1        -0.60661         -0.86396 
     45       Ni2        N5    2.08814     0  -1  -1        -0.60709         -0.86310 
     46       Ni2        N5    3.73072    -1   0  -1        -0.00141         -0.00145 
     47       Ni2        N5    2.08814     0   0  -1        -0.60660         -0.86396 
     48       Ni2        N5    3.73072     1   0  -1        -0.00130         -0.00145 
     49       Ni2        N6    3.73072    -2  -1   0        -0.00130         -0.00146 
     50       Ni2        N6    2.08814    -1  -1   0        -0.60667         -0.86388 
     51       Ni2        N6    3.73072     0  -1   0        -0.00142         -0.00145 
     52       Ni2        N6    2.08814    -1   0   0        -0.60719         -0.86302 
     53       Ni2        N6    2.08814     0   0   0        -0.60668         -0.86388 
     54       Ni2        N6    3.73072     0   1   0        -0.00130         -0.00145 
     55       Ni2        C7    2.92719    -1  -1   0        -0.03446         -0.02914 
     56       Ni2        C7    2.92719    -1   0   0        -0.03452         -0.02954 
     57       Ni2        C7    2.92719     0   0   0        -0.03446         -0.02914 
     58       Ni2        C8    2.92719    -1  -1  -1        -0.03449         -0.02916 
     59       Ni2        C8    2.92719     0  -1  -1        -0.03454         -0.02957 
     60       Ni2        C8    2.92719     0   0  -1        -0.03449         -0.02916 
     61        N3        N3    3.09159    -1  -1   0        -0.01357         -0.00975 
     62        N3        N3    3.09159     0  -1   0        -0.01329         -0.00973 
     63        N3        N3    3.09159    -1   0   0        -0.01327         -0.00973 
     64        N3        N3    3.09159     1   0   0        -0.01327         -0.00973 
     65        N3        N3    3.09159     0   1   0        -0.01329         -0.00973 
     66        N3        N3    3.09159     1   1   0        -0.01357         -0.00975 
     67        N3        N4    2.80775     0  -1   0        -0.02633         -0.03058 
     68        N3        N4    2.80775     0   0   0        -0.02575         -0.03096 
     69        N3        N4    2.80775     1   0   0        -0.02633         -0.03057 
     70        N3        N6    3.95878    -1  -1   0        -0.00103         -0.00126 
     71        N3        N6    3.95878     0  -1   0        -0.00126         -0.00112 
     72        N3        N6    3.95878    -1   0   0        -0.00085         -0.00147 
     73        N3        N6    2.47266     0   0   0        -0.47391         -0.41691 
     74        N3        N6    3.95878     1   0   0        -0.00125         -0.00112 
     75        N3        N6    3.95878     0   1   0        -0.00086         -0.00146 
     76        N3        N6    3.95878     1   1   0        -0.00103         -0.00126 
     77        N3        C7    3.32963    -1  -1   0        -0.00197         -0.00229 
     78        N3        C7    3.32963     0  -1   0        -0.00210         -0.00216 
     79        N3        C7    3.32963    -1   0   0        -0.00180         -0.00250 
     80        N3        C7    1.23633     0   0   0        -8.70577         -8.70656 
     81        N3        C7    3.32963     1   0   0        -0.00209         -0.00215 
     82        N3        C7    3.32963     0   1   0        -0.00180         -0.00250 
     83        N3        C7    3.32963     1   1   0        -0.00197         -0.00229 
     84        N3        C8    3.84332     0  -1   0        -0.00670         -0.00470 
     85        N3        C8    3.84332     0   0   0        -0.00664         -0.00422 
     86        N3        C8    3.84332     1   0   0        -0.00671         -0.00470 
     87        N4        N4    3.09159    -1  -1   0        -0.01356         -0.00976 
     88        N4        N4    3.09159     0  -1   0        -0.01327         -0.00974 
     89        N4        N4    3.09159    -1   0   0        -0.01326         -0.00974 
     90        N4        N4    3.09159     1   0   0        -0.01326         -0.00974 
     91        N4        N4    3.09159     0   1   0        -0.01327         -0.00974 
     92        N4        N4    3.09159     1   1   0        -0.01356         -0.00976 
     93        N4        N5    3.95878    -1  -1   0        -0.00104         -0.00127 
     94        N4        N5    3.95878     0  -1   0        -0.00086         -0.00147 
     95        N4        N5    3.95878    -1   0   0        -0.00125         -0.00113 
     96        N4        N5    2.47266     0   0   0        -0.47469         -0.41723 
     97        N4        N5    3.95878     1   0   0        -0.00085         -0.00148 
     98        N4        N5    3.95878     0   1   0        -0.00127         -0.00113 
     99        N4        N5    3.95878     1   1   0        -0.00104         -0.00127 
    100        N4        C7    3.84332    -1   0   0        -0.00676         -0.00473 
    101        N4        C7    3.84332     0   0   0        -0.00670         -0.00425 
    102        N4        C7    3.84332     0   1   0        -0.00675         -0.00474 
    103        N4        C8    3.32963    -1  -1   0        -0.00195         -0.00229 
    104        N4        C8    3.32963     0  -1   0        -0.00179         -0.00249 
    105        N4        C8    3.32963    -1   0   0        -0.00207         -0.00215 
    106        N4        C8    1.23633     0   0   0        -8.70411         -8.70536 
    107        N4        C8    3.32963     1   0   0        -0.00178         -0.00249 
    108        N4        C8    3.32963     0   1   0        -0.00208         -0.00215 
    109        N4        C8    3.32963     1   1   0        -0.00196         -0.00228 
    110        N5        N5    3.09159    -1  -1   0        -0.01325         -0.00969 
    111        N5        N5    3.09159     0  -1   0        -0.01354         -0.00974 
    112        N5        N5    3.09159    -1   0   0        -0.01354         -0.00974 
    113        N5        N5    3.09159     1   0   0        -0.01354         -0.00974 
    114        N5        N5    3.09159     0   1   0        -0.01354         -0.00974 
    115        N5        N5    3.09159     1   1   0        -0.01325         -0.00969 
    116        N5        N6    2.80775    -1   0   1        -0.02605         -0.03103 
    117        N5        N6    2.80775     0   0   1        -0.02654         -0.03057 
    118        N5        N6    2.80775     0   1   1        -0.02604         -0.03103 
    119        N5        C7    3.84332    -1   0   1        -0.00667         -0.00437 
    120        N5        C7    3.84332     0   0   1        -0.00662         -0.00474 
    121        N5        C7    3.84332     0   1   1        -0.00666         -0.00437 
    122        N5        C8    3.32963    -1  -1   0        -0.00192         -0.00230 
    123        N5        C8    3.32963     0  -1   0        -0.00213         -0.00213 
    124        N5        C8    3.32963    -1   0   0        -0.00181         -0.00247 
    125        N5        C8    1.23633     0   0   0        -8.70683         -8.70792 
    126        N5        C8    3.32963     1   0   0        -0.00212         -0.00213 
    127        N5        C8    3.32963     0   1   0        -0.00181         -0.00246 
    128        N5        C8    3.32963     1   1   0        -0.00192         -0.00230 
    129        N6        N6    3.09159    -1  -1   0        -0.01324         -0.00968 
    130        N6        N6    3.09159     0  -1   0        -0.01356         -0.00972 
    131        N6        N6    3.09159    -1   0   0        -0.01355         -0.00973 
    132        N6        N6    3.09159     1   0   0        -0.01355         -0.00973 
    133        N6        N6    3.09159     0   1   0        -0.01356         -0.00972 
    134        N6        N6    3.09159     1   1   0        -0.01324         -0.00968 
    135        N6        C7    3.32963    -1  -1   0        -0.00194         -0.00231 
    136        N6        C7    3.32963     0  -1   0        -0.00182         -0.00247 
    137        N6        C7    3.32963    -1   0   0        -0.00214         -0.00213 
    138        N6        C7    1.23633     0   0   0        -8.70842         -8.70919 
    139        N6        C7    3.32963     1   0   0        -0.00182         -0.00248 
    140        N6        C7    3.32963     0   1   0        -0.00214         -0.00213 
    141        N6        C7    3.32963     1   1   0        -0.00194         -0.00231 
    142        N6        C8    3.84332     0  -1  -1        -0.00661         -0.00434 
    143        N6        C8    3.84332     0   0  -1        -0.00657         -0.00470 
    144        N6        C8    3.84332     1   0  -1        -0.00661         -0.00434 
    145        C7        C7    3.09159    -1  -1   0        -0.01075         -0.00922 
    146        C7        C7    3.09159     0  -1   0        -0.01072         -0.00919 
    147        C7        C7    3.09159    -1   0   0        -0.01075         -0.00919 
    148        C7        C7    3.09159     1   0   0        -0.01075         -0.00919 
    149        C7        C7    3.09159     0   1   0        -0.01072         -0.00919 
    150        C7        C7    3.09159     1   1   0        -0.01075         -0.00922 
    151        C8        C8    3.09159    -1  -1   0        -0.01076         -0.00923 
    152        C8        C8    3.09159     0  -1   0        -0.01074         -0.00921 
    153        C8        C8    3.09159    -1   0   0        -0.01077         -0.00920 
    154        C8        C8    3.09159     1   0   0        -0.01077         -0.00920 
    155        C8        C8    3.09159     0   1   0        -0.01074         -0.00921 
    156        C8        C8    3.09159     1   1   0        -0.01076         -0.00923 