  COHP#  fragmentAlpha   fragmentBeta   distance   translation     ICOHP (at) eF      ICOHP (at) eF 
                                                                      for spin 1         for spin 2 
      1          CN2_1          CN2_1    3.09159    -1  -1   0          -0.04740           -0.04041 
      2          CN2_1          CN2_1    3.09159     0  -1   0          -0.04749           -0.04051 
      3          CN2_1          CN2_1    3.09159    -1   0   0          -0.04745           -0.04052 
      4          CN2_1          CN2_1    3.09159     1   0   0          -0.04745           -0.04052 
      5          CN2_1          CN2_1    3.09159     0   1   0          -0.04749           -0.04051 
      6          CN2_1          CN2_1    3.09159     1   1   0          -0.04740           -0.04041 
      7          CN2_1           Ni_2    3.73072    -1   0   0          -0.00197           -0.00225 
      8          CN2_1           Ni_2    2.08814     0   0   0          -0.64948           -0.90026 
      9          CN2_1           Ni_2    3.73072     1   0   0          -0.00175           -0.00214 
     10          CN2_1           Ni_2    2.08814     0   1   0          -0.64885           -0.90017 
     11          CN2_1           Ni_2    2.08814     1   1   0          -0.64947           -0.90026 
     12          CN2_1           Ni_2    3.73072     1   2   0          -0.00197           -0.00225 
     13          CN2_1           Ni_3    3.73072    -1   0   1          -0.00187           -0.00217 
     14          CN2_1           Ni_3    2.08814     0   0   1          -0.64986           -0.90083 
     15          CN2_1           Ni_3    3.73072     1   0   1          -0.00207           -0.00225 
     16          CN2_1           Ni_3    2.08814     0   1   1          -0.65044           -0.90083 
     17          CN2_1           Ni_3    2.08814     1   1   1          -0.64986           -0.90083 
     18          CN2_1           Ni_3    3.73072     1   2   1          -0.00187           -0.00217 
     19          CN2_1            N_4    2.80775    -1   0   0          -0.03451           -0.03653 
     20          CN2_1            N_4    2.80775     0   0   0          -0.03407           -0.03628 
     21          CN2_1            N_4    2.80775     0   1   0          -0.03451           -0.03653 
     22          CN2_1            N_5    2.80775    -1   0   1          -0.03416           -0.03640 
     23          CN2_1            N_5    2.80775     0   0   1          -0.03453           -0.03658 
     24          CN2_1            N_5    2.80775     0   1   1          -0.03415           -0.03640 
     25          CN2_1            C_6    3.84332    -1   0   0          -0.00713           -0.00606 
     26          CN2_1            C_6    3.84332     0   0   0          -0.00704           -0.00504 
     27          CN2_1            C_6    3.84332     0   1   0          -0.00711           -0.00607 
     28          CN2_1            C_6    3.84332    -1   0   1          -0.00714           -0.00542 
     29          CN2_1            C_6    3.84332     0   0   1          -0.00697           -0.00615 
     30          CN2_1            C_6    3.84332     0   1   1          -0.00712           -0.00543 