  COHP#    atomMU    atomNU   distance   translation   ICOHP (at) eF 
                                                          for spin 1 
      1       Ni1       Ni1    3.05359    -1  -1   0        -0.06889 
      1    Ni1_4s    Ni1_4s    3.05359    -1  -1   0        -0.07563 
      1    Ni1_4s Ni1_3d_xy    3.05359    -1  -1   0         0.00001 
      1    Ni1_4s Ni1_3d_yz    3.05359    -1  -1   0         0.00015 
      1    Ni1_4s Ni1_3d_z^2    3.05359    -1  -1   0         0.00001 
      1    Ni1_4s Ni1_3d_xz    3.05359    -1  -1   0         0.00075 
      1    Ni1_4s Ni1_3d_x^2-y^2    3.05359    -1  -1   0         0.00041 
      1 Ni1_3d_xy    Ni1_4s    3.05359    -1  -1   0         0.00001 
      1 Ni1_3d_xy Ni1_3d_xy    3.05359    -1  -1   0         0.00007 
      1 Ni1_3d_xy Ni1_3d_yz    3.05359    -1  -1   0        -0.00002 
      1 Ni1_3d_xy Ni1_3d_z^2    3.05359    -1  -1   0         0.00004 
      1 Ni1_3d_xy Ni1_3d_xz    3.05359    -1  -1   0         0.00018 
      1 Ni1_3d_xy Ni1_3d_x^2-y^2    3.05359    -1  -1   0        -0.00001 
      1 Ni1_3d_yz    Ni1_4s    3.05359    -1  -1   0         0.00015 
      1 Ni1_3d_yz Ni1_3d_xy    3.05359    -1  -1   0        -0.00002 
      1 Ni1_3d_yz Ni1_3d_yz    3.05359    -1  -1   0         0.00003 
      1 Ni1_3d_yz Ni1_3d_z^2    3.05359    -1  -1   0         0.00008 
      1 Ni1_3d_yz Ni1_3d_xz    3.05359    -1  -1   0         0.00003 
      1 Ni1_3d_yz Ni1_3d_x^2-y^2    3.05359    -1  -1   0        -0.00006 
      1 Ni1_3d_z^2    Ni1_4s    3.05359    -1  -1   0         0.00001 
      1 Ni1_3d_z^2 Ni1_3d_xy    3.05359    -1  -1   0         0.00005 
      1 Ni1_3d_z^2 Ni1_3d_yz    3.05359    -1  -1   0         0.00008 
      1 Ni1_3d_z^2 Ni1_3d_z^2    3.05359    -1  -1   0        -0.00008 
      1 Ni1_3d_z^2 Ni1_3d_xz    3.05359    -1  -1   0        -0.00014 
      1 Ni1_3d_z^2 Ni1_3d_x^2-y^2    3.05359    -1  -1   0         0.00027 
      1 Ni1_3d_xz    Ni1_4s    3.05359    -1  -1   0         0.00075 
      1 Ni1_3d_xz Ni1_3d_xy    3.05359    -1  -1   0         0.00018 
      1 Ni1_3d_xz Ni1_3d_yz    3.05359    -1  -1   0         0.00003 
      1 Ni1_3d_xz Ni1_3d_z^2    3.05359    -1  -1   0        -0.00014 
      1 Ni1_3d_xz Ni1_3d_xz    3.05359    -1  -1   0         0.00122 
      1 Ni1_3d_xz Ni1_3d_x^2-y^2    3.05359    -1  -1   0         0.00098 
      1 Ni1_3d_x^2-y^2    Ni1_4s    3.05359    -1  -1   0         0.00041 
      1 Ni1_3d_x^2-y^2 Ni1_3d_xy    3.05359    -1  -1   0        -0.00001 
      1 Ni1_3d_x^2-y^2 Ni1_3d_yz    3.05359    -1  -1   0        -0.00006 
      1 Ni1_3d_x^2-y^2 Ni1_3d_z^2    3.05359    -1  -1   0         0.00027 
      1 Ni1_3d_x^2-y^2 Ni1_3d_xz    3.05359    -1  -1   0         0.00098 
      1 Ni1_3d_x^2-y^2 Ni1_3d_x^2-y^2    3.05359    -1  -1   0         0.00012 
      2       Ni1       Ni1    3.05359     0  -1   0        -0.06870 
      2    Ni1_4s    Ni1_4s    3.05359     0  -1   0        -0.07549 
      2    Ni1_4s Ni1_3d_xy    3.05359     0  -1   0         0.00072 
      2    Ni1_4s Ni1_3d_yz    3.05359     0  -1   0         0.00007 
      2    Ni1_4s Ni1_3d_z^2    3.05359     0  -1   0         0.00052 
      2    Ni1_4s Ni1_3d_xz    3.05359     0  -1   0         0.00005 
      2    Ni1_4s Ni1_3d_x^2-y^2    3.05359     0  -1   0         0.00001 
      2 Ni1_3d_xy    Ni1_4s    3.05359     0  -1   0         0.00072 
      2 Ni1_3d_xy Ni1_3d_xy    3.05359     0  -1   0         0.00154 
      2 Ni1_3d_xy Ni1_3d_yz    3.05359     0  -1   0        -0.00001 
      2 Ni1_3d_xy Ni1_3d_z^2    3.05359     0  -1   0         0.00077 
      2 Ni1_3d_xy Ni1_3d_xz    3.05359     0  -1   0        -0.00002 
      2 Ni1_3d_xy Ni1_3d_x^2-y^2    3.05359     0  -1   0         0.00009 
      2 Ni1_3d_yz    Ni1_4s    3.05359     0  -1   0         0.00007 
      2 Ni1_3d_yz Ni1_3d_xy    3.05359     0  -1   0        -0.00001 
      2 Ni1_3d_yz Ni1_3d_yz    3.05359     0  -1   0         0.00011 
      2 Ni1_3d_yz Ni1_3d_z^2    3.05359     0  -1   0        -0.00000 
      2 Ni1_3d_yz Ni1_3d_xz    3.05359     0  -1   0         0.00004 
      2 Ni1_3d_yz Ni1_3d_x^2-y^2    3.05359     0  -1   0        -0.00001 
      2 Ni1_3d_z^2    Ni1_4s    3.05359     0  -1   0         0.00051 
      2 Ni1_3d_z^2 Ni1_3d_xy    3.05359     0  -1   0         0.00077 
      2 Ni1_3d_z^2 Ni1_3d_yz    3.05359     0  -1   0        -0.00000 
      2 Ni1_3d_z^2 Ni1_3d_z^2    3.05359     0  -1   0         0.00038 
      2 Ni1_3d_z^2 Ni1_3d_xz    3.05359     0  -1   0        -0.00000 
      2 Ni1_3d_z^2 Ni1_3d_x^2-y^2    3.05359     0  -1   0         0.00001 
      2 Ni1_3d_xz    Ni1_4s    3.05359     0  -1   0         0.00005 
      2 Ni1_3d_xz Ni1_3d_xy    3.05359     0  -1   0        -0.00002 
      2 Ni1_3d_xz Ni1_3d_yz    3.05359     0  -1   0         0.00004 
      2 Ni1_3d_xz Ni1_3d_z^2    3.05359     0  -1   0        -0.00000 
      2 Ni1_3d_xz Ni1_3d_xz    3.05359     0  -1   0         0.00014 
      2 Ni1_3d_xz Ni1_3d_x^2-y^2    3.05359     0  -1   0         0.00000 
      2 Ni1_3d_x^2-y^2    Ni1_4s    3.05359     0  -1   0         0.00001 
      2 Ni1_3d_x^2-y^2 Ni1_3d_xy    3.05359     0  -1   0         0.00009 
      2 Ni1_3d_x^2-y^2 Ni1_3d_yz    3.05359     0  -1   0        -0.00001 
      2 Ni1_3d_x^2-y^2 Ni1_3d_z^2    3.05359     0  -1   0         0.00001 
      2 Ni1_3d_x^2-y^2 Ni1_3d_xz    3.05359     0  -1   0         0.00000 
      2 Ni1_3d_x^2-y^2 Ni1_3d_x^2-y^2    3.05359     0  -1   0         0.00015 
      3       Ni1       Ni1    3.05359    -1   0   0        -0.06869 
      3    Ni1_4s    Ni1_4s    3.05359    -1   0   0        -0.07548 
      3    Ni1_4s Ni1_3d_xy    3.05359    -1   0   0         0.00006 
      3    Ni1_4s Ni1_3d_yz    3.05359    -1   0   0         0.00084 
      3    Ni1_4s Ni1_3d_z^2    3.05359    -1   0   0         0.00002 
      3    Ni1_4s Ni1_3d_xz    3.05359    -1   0   0         0.00007 
      3    Ni1_4s Ni1_3d_x^2-y^2    3.05359    -1   0   0         0.00037 
      3 Ni1_3d_xy    Ni1_4s    3.05359    -1   0   0         0.00006 
      3 Ni1_3d_xy Ni1_3d_xy    3.05359    -1   0   0         0.00004 
      3 Ni1_3d_xy Ni1_3d_yz    3.05359    -1   0   0        -0.00000 
      3 Ni1_3d_xy Ni1_3d_z^2    3.05359    -1   0   0        -0.00001 
      3 Ni1_3d_xy Ni1_3d_xz    3.05359    -1   0   0        -0.00004 
      3 Ni1_3d_xy Ni1_3d_x^2-y^2    3.05359    -1   0   0         0.00002 
      3 Ni1_3d_yz    Ni1_4s    3.05359    -1   0   0         0.00084 
      3 Ni1_3d_yz Ni1_3d_xy    3.05359    -1   0   0        -0.00000 
      3 Ni1_3d_yz Ni1_3d_yz    3.05359    -1   0   0         0.00134 
      3 Ni1_3d_yz Ni1_3d_z^2    3.05359    -1   0   0        -0.00013 
      3 Ni1_3d_yz Ni1_3d_xz    3.05359    -1   0   0        -0.00005 
      3 Ni1_3d_yz Ni1_3d_x^2-y^2    3.05359    -1   0   0         0.00117 
      3 Ni1_3d_z^2    Ni1_4s    3.05359    -1   0   0         0.00002 
      3 Ni1_3d_z^2 Ni1_3d_xy    3.05359    -1   0   0        -0.00000 
      3 Ni1_3d_z^2 Ni1_3d_yz    3.05359    -1   0   0        -0.00013 
      3 Ni1_3d_z^2 Ni1_3d_z^2    3.05359    -1   0   0        -0.00008 
      3 Ni1_3d_z^2 Ni1_3d_xz    3.05359    -1   0   0         0.00007 
      3 Ni1_3d_z^2 Ni1_3d_x^2-y^2    3.05359    -1   0   0         0.00032 
      3 Ni1_3d_xz    Ni1_4s    3.05359    -1   0   0         0.00007 
      3 Ni1_3d_xz Ni1_3d_xy    3.05359    -1   0   0        -0.00004 
      3 Ni1_3d_xz Ni1_3d_yz    3.05359    -1   0   0        -0.00005 
      3 Ni1_3d_xz Ni1_3d_z^2    3.05359    -1   0   0         0.00007 
      3 Ni1_3d_xz Ni1_3d_xz    3.05359    -1   0   0         0.00005 
      3 Ni1_3d_xz Ni1_3d_x^2-y^2    3.05359    -1   0   0        -0.00004 
      3 Ni1_3d_x^2-y^2    Ni1_4s    3.05359    -1   0   0         0.00037 
      3 Ni1_3d_x^2-y^2 Ni1_3d_xy    3.05359    -1   0   0         0.00002 
      3 Ni1_3d_x^2-y^2 Ni1_3d_yz    3.05359    -1   0   0         0.00117 
      3 Ni1_3d_x^2-y^2 Ni1_3d_z^2    3.05359    -1   0   0         0.00032 
      3 Ni1_3d_x^2-y^2 Ni1_3d_xz    3.05359    -1   0   0        -0.00004 
      3 Ni1_3d_x^2-y^2 Ni1_3d_x^2-y^2    3.05359    -1   0   0         0.00009 
      4       Ni1       Ni1    0.00000     0   0   0        43.62846 
      4    Ni1_4s    Ni1_4s    0.00000     0   0   0         4.59594 
      4    Ni1_4s Ni1_3d_xy    0.00000     0   0   0        -0.00921 
      4    Ni1_4s Ni1_3d_yz    0.00000     0   0   0        -0.01438 
      4    Ni1_4s Ni1_3d_z^2    0.00000     0   0   0        -0.00050 
      4    Ni1_4s Ni1_3d_xz    0.00000     0   0   0        -0.01202 
      4    Ni1_4s Ni1_3d_x^2-y^2    0.00000     0   0   0        -0.00010 
      4 Ni1_3d_xy    Ni1_4s    0.00000     0   0   0        -0.00921 
      4 Ni1_3d_xy Ni1_3d_xy    0.00000     0   0   0         8.85939 
      4 Ni1_3d_xy Ni1_3d_yz    0.00000     0   0   0        -0.00008 
      4 Ni1_3d_xy Ni1_3d_z^2    0.00000     0   0   0         0.00004 
      4 Ni1_3d_xy Ni1_3d_xz    0.00000     0   0   0        -0.00004 
      4 Ni1_3d_xy Ni1_3d_x^2-y^2    0.00000     0   0   0        -0.00061 
      4 Ni1_3d_yz    Ni1_4s    0.00000     0   0   0        -0.01438 
      4 Ni1_3d_yz Ni1_3d_xy    0.00000     0   0   0        -0.00008 
      4 Ni1_3d_yz Ni1_3d_yz    0.00000     0   0   0         8.86478 
      4 Ni1_3d_yz Ni1_3d_z^2    0.00000     0   0   0        -0.00155 
      4 Ni1_3d_yz Ni1_3d_xz    0.00000     0   0   0         0.00001 
      4 Ni1_3d_yz Ni1_3d_x^2-y^2    0.00000     0   0   0         0.00081 
      4 Ni1_3d_z^2    Ni1_4s    0.00000     0   0   0        -0.00050 
      4 Ni1_3d_z^2 Ni1_3d_xy    0.00000     0   0   0         0.00004 
      4 Ni1_3d_z^2 Ni1_3d_yz    0.00000     0   0   0        -0.00155 
      4 Ni1_3d_z^2 Ni1_3d_z^2    0.00000     0   0   0         6.25456 
      4 Ni1_3d_z^2 Ni1_3d_xz    0.00000     0   0   0        -0.00125 
      4 Ni1_3d_z^2 Ni1_3d_x^2-y^2    0.00000     0   0   0         0.00000 
      4 Ni1_3d_xz    Ni1_4s    0.00000     0   0   0        -0.01202 
      4 Ni1_3d_xz Ni1_3d_xy    0.00000     0   0   0        -0.00004 
      4 Ni1_3d_xz Ni1_3d_yz    0.00000     0   0   0         0.00001 
      4 Ni1_3d_xz Ni1_3d_z^2    0.00000     0   0   0        -0.00125 
      4 Ni1_3d_xz Ni1_3d_xz    0.00000     0   0   0         8.85933 
      4 Ni1_3d_xz Ni1_3d_x^2-y^2    0.00000     0   0   0         0.00096 
      4 Ni1_3d_x^2-y^2    Ni1_4s    0.00000     0   0   0        -0.00010 
      4 Ni1_3d_x^2-y^2 Ni1_3d_xy    0.00000     0   0   0        -0.00061 
      4 Ni1_3d_x^2-y^2 Ni1_3d_yz    0.00000     0   0   0         0.00081 
      4 Ni1_3d_x^2-y^2 Ni1_3d_z^2    0.00000     0   0   0         0.00000 
      4 Ni1_3d_x^2-y^2 Ni1_3d_xz    0.00000     0   0   0         0.00096 
      4 Ni1_3d_x^2-y^2 Ni1_3d_x^2-y^2    0.00000     0   0   0         6.27030 
      5       Ni1       Ni1    3.05359     1   0   0        -0.06869 
      5    Ni1_4s    Ni1_4s    3.05359     1   0   0        -0.07548 
      5    Ni1_4s Ni1_3d_xy    3.05359     1   0   0         0.00006 
      5    Ni1_4s Ni1_3d_yz    3.05359     1   0   0         0.00084 
      5    Ni1_4s Ni1_3d_z^2    3.05359     1   0   0         0.00002 
      5    Ni1_4s Ni1_3d_xz    3.05359     1   0   0         0.00007 
      5    Ni1_4s Ni1_3d_x^2-y^2    3.05359     1   0   0         0.00037 
      5 Ni1_3d_xy    Ni1_4s    3.05359     1   0   0         0.00006 
      5 Ni1_3d_xy Ni1_3d_xy    3.05359     1   0   0         0.00004 
      5 Ni1_3d_xy Ni1_3d_yz    3.05359     1   0   0        -0.00000 
      5 Ni1_3d_xy Ni1_3d_z^2    3.05359     1   0   0        -0.00000 
      5 Ni1_3d_xy Ni1_3d_xz    3.05359     1   0   0        -0.00004 
      5 Ni1_3d_xy Ni1_3d_x^2-y^2    3.05359     1   0   0         0.00002 
      5 Ni1_3d_yz    Ni1_4s    3.05359     1   0   0         0.00084 
      5 Ni1_3d_yz Ni1_3d_xy    3.05359     1   0   0        -0.00000 
      5 Ni1_3d_yz Ni1_3d_yz    3.05359     1   0   0         0.00134 
      5 Ni1_3d_yz Ni1_3d_z^2    3.05359     1   0   0        -0.00013 
      5 Ni1_3d_yz Ni1_3d_xz    3.05359     1   0   0        -0.00005 
      5 Ni1_3d_yz Ni1_3d_x^2-y^2    3.05359     1   0   0         0.00117 
      5 Ni1_3d_z^2    Ni1_4s    3.05359     1   0   0         0.00002 
      5 Ni1_3d_z^2 Ni1_3d_xy    3.05359     1   0   0        -0.00001 
      5 Ni1_3d_z^2 Ni1_3d_yz    3.05359     1   0   0        -0.00013 
      5 Ni1_3d_z^2 Ni1_3d_z^2    3.05359     1   0   0        -0.00008 
      5 Ni1_3d_z^2 Ni1_3d_xz    3.05359     1   0   0         0.00007 
      5 Ni1_3d_z^2 Ni1_3d_x^2-y^2    3.05359     1   0   0         0.00032 
      5 Ni1_3d_xz    Ni1_4s    3.05359     1   0   0         0.00007 
      5 Ni1_3d_xz Ni1_3d_xy    3.05359     1   0   0        -0.00004 
      5 Ni1_3d_xz Ni1_3d_yz    3.05359     1   0   0        -0.00005 
      5 Ni1_3d_xz Ni1_3d_z^2    3.05359     1   0   0         0.00007 
      5 Ni1_3d_xz Ni1_3d_xz    3.05359     1   0   0         0.00005 
      5 Ni1_3d_xz Ni1_3d_x^2-y^2    3.05359     1   0   0        -0.00004 
      5 Ni1_3d_x^2-y^2    Ni1_4s    3.05359     1   0   0         0.00037 
      5 Ni1_3d_x^2-y^2 Ni1_3d_xy    3.05359     1   0   0         0.00002 
      5 Ni1_3d_x^2-y^2 Ni1_3d_yz    3.05359     1   0   0         0.00117 
      5 Ni1_3d_x^2-y^2 Ni1_3d_z^2    3.05359     1   0   0         0.00032 
      5 Ni1_3d_x^2-y^2 Ni1_3d_xz    3.05359     1   0   0        -0.00004 
      5 Ni1_3d_x^2-y^2 Ni1_3d_x^2-y^2    3.05359     1   0   0         0.00009 
      6       Ni1       Ni1    3.05359     0   1   0        -0.06870 
      6    Ni1_4s    Ni1_4s    3.05359     0   1   0        -0.07549 
      6    Ni1_4s Ni1_3d_xy    3.05359     0   1   0         0.00072 
      6    Ni1_4s Ni1_3d_yz    3.05359     0   1   0         0.00007 
      6    Ni1_4s Ni1_3d_z^2    3.05359     0   1   0         0.00051 
      6    Ni1_4s Ni1_3d_xz    3.05359     0   1   0         0.00005 
      6    Ni1_4s Ni1_3d_x^2-y^2    3.05359     0   1   0         0.00001 
      6 Ni1_3d_xy    Ni1_4s    3.05359     0   1   0         0.00072 
      6 Ni1_3d_xy Ni1_3d_xy    3.05359     0   1   0         0.00154 
      6 Ni1_3d_xy Ni1_3d_yz    3.05359     0   1   0        -0.00001 
      6 Ni1_3d_xy Ni1_3d_z^2    3.05359     0   1   0         0.00077 
      6 Ni1_3d_xy Ni1_3d_xz    3.05359     0   1   0        -0.00002 
      6 Ni1_3d_xy Ni1_3d_x^2-y^2    3.05359     0   1   0         0.00009 
      6 Ni1_3d_yz    Ni1_4s    3.05359     0   1   0         0.00007 
      6 Ni1_3d_yz Ni1_3d_xy    3.05359     0   1   0        -0.00001 
      6 Ni1_3d_yz Ni1_3d_yz    3.05359     0   1   0         0.00011 
      6 Ni1_3d_yz Ni1_3d_z^2    3.05359     0   1   0        -0.00000 
      6 Ni1_3d_yz Ni1_3d_xz    3.05359     0   1   0         0.00004 
      6 Ni1_3d_yz Ni1_3d_x^2-y^2    3.05359     0   1   0        -0.00001 
      6 Ni1_3d_z^2    Ni1_4s    3.05359     0   1   0         0.00052 
      6 Ni1_3d_z^2 Ni1_3d_xy    3.05359     0   1   0         0.00077 
      6 Ni1_3d_z^2 Ni1_3d_yz    3.05359     0   1   0        -0.00000 
      6 Ni1_3d_z^2 Ni1_3d_z^2    3.05359     0   1   0         0.00038 
      6 Ni1_3d_z^2 Ni1_3d_xz    3.05359     0   1   0        -0.00000 
      6 Ni1_3d_z^2 Ni1_3d_x^2-y^2    3.05359     0   1   0         0.00001 
      6 Ni1_3d_xz    Ni1_4s    3.05359     0   1   0         0.00005 
      6 Ni1_3d_xz Ni1_3d_xy    3.05359     0   1   0        -0.00002 
      6 Ni1_3d_xz Ni1_3d_yz    3.05359     0   1   0         0.00004 
      6 Ni1_3d_xz Ni1_3d_z^2    3.05359     0   1   0        -0.00000 
      6 Ni1_3d_xz Ni1_3d_xz    3.05359     0   1   0         0.00014 
      6 Ni1_3d_xz Ni1_3d_x^2-y^2    3.05359     0   1   0         0.00000 
      6 Ni1_3d_x^2-y^2    Ni1_4s    3.05359     0   1   0         0.00001 
      6 Ni1_3d_x^2-y^2 Ni1_3d_xy    3.05359     0   1   0         0.00009 
      6 Ni1_3d_x^2-y^2 Ni1_3d_yz    3.05359     0   1   0        -0.00001 
      6 Ni1_3d_x^2-y^2 Ni1_3d_z^2    3.05359     0   1   0         0.00001 
      6 Ni1_3d_x^2-y^2 Ni1_3d_xz    3.05359     0   1   0         0.00000 
      6 Ni1_3d_x^2-y^2 Ni1_3d_x^2-y^2    3.05359     0   1   0         0.00015 
      7       Ni1       Ni1    3.05359     1   1   0        -0.06889 
      7    Ni1_4s    Ni1_4s    3.05359     1   1   0        -0.07563 
      7    Ni1_4s Ni1_3d_xy    3.05359     1   1   0         0.00001 
      7    Ni1_4s Ni1_3d_yz    3.05359     1   1   0         0.00015 
      7    Ni1_4s Ni1_3d_z^2    3.05359     1   1   0         0.00001 
      7    Ni1_4s Ni1_3d_xz    3.05359     1   1   0         0.00075 
      7    Ni1_4s Ni1_3d_x^2-y^2    3.05359     1   1   0         0.00041 
      7 Ni1_3d_xy    Ni1_4s    3.05359     1   1   0         0.00001 
      7 Ni1_3d_xy Ni1_3d_xy    3.05359     1   1   0         0.00007 
      7 Ni1_3d_xy Ni1_3d_yz    3.05359     1   1   0        -0.00002 
      7 Ni1_3d_xy Ni1_3d_z^2    3.05359     1   1   0         0.00005 
      7 Ni1_3d_xy Ni1_3d_xz    3.05359     1   1   0         0.00018 
      7 Ni1_3d_xy Ni1_3d_x^2-y^2    3.05359     1   1   0        -0.00001 
      7 Ni1_3d_yz    Ni1_4s    3.05359     1   1   0         0.00015 
      7 Ni1_3d_yz Ni1_3d_xy    3.05359     1   1   0        -0.00002 
      7 Ni1_3d_yz Ni1_3d_yz    3.05359     1   1   0         0.00003 
      7 Ni1_3d_yz Ni1_3d_z^2    3.05359     1   1   0         0.00008 
      7 Ni1_3d_yz Ni1_3d_xz    3.05359     1   1   0         0.00003 
      7 Ni1_3d_yz Ni1_3d_x^2-y^2    3.05359     1   1   0        -0.00006 
      7 Ni1_3d_z^2    Ni1_4s    3.05359     1   1   0         0.00001 
      7 Ni1_3d_z^2 Ni1_3d_xy    3.05359     1   1   0         0.00004 
      7 Ni1_3d_z^2 Ni1_3d_yz    3.05359     1   1   0         0.00008 
      7 Ni1_3d_z^2 Ni1_3d_z^2    3.05359     1   1   0        -0.00008 
      7 Ni1_3d_z^2 Ni1_3d_xz    3.05359     1   1   0        -0.00014 
      7 Ni1_3d_z^2 Ni1_3d_x^2-y^2    3.05359     1   1   0         0.00027 
      7 Ni1_3d_xz    Ni1_4s    3.05359     1   1   0         0.00075 
      7 Ni1_3d_xz Ni1_3d_xy    3.05359     1   1   0         0.00018 
      7 Ni1_3d_xz Ni1_3d_yz    3.05359     1   1   0         0.00003 
      7 Ni1_3d_xz Ni1_3d_z^2    3.05359     1   1   0        -0.00014 
      7 Ni1_3d_xz Ni1_3d_xz    3.05359     1   1   0         0.00122 
      7 Ni1_3d_xz Ni1_3d_x^2-y^2    3.05359     1   1   0         0.00098 
      7 Ni1_3d_x^2-y^2    Ni1_4s    3.05359     1   1   0         0.00041 
      7 Ni1_3d_x^2-y^2 Ni1_3d_xy    3.05359     1   1   0        -0.00001 
      7 Ni1_3d_x^2-y^2 Ni1_3d_yz    3.05359     1   1   0        -0.00006 
      7 Ni1_3d_x^2-y^2 Ni1_3d_z^2    3.05359     1   1   0         0.00027 
      7 Ni1_3d_x^2-y^2 Ni1_3d_xz    3.05359     1   1   0         0.00098 
      7 Ni1_3d_x^2-y^2 Ni1_3d_x^2-y^2    3.05359     1   1   0         0.00012 
      8       Ni1       Ni2    4.59225     0   0   0         0.00527 
      8    Ni1_4s    Ni2_4s    4.59225     0   0   0         0.00606 
      8    Ni1_4s Ni2_3d_xy    4.59225     0   0   0        -0.00004 
      8    Ni1_4s Ni2_3d_yz    4.59225     0   0   0        -0.00013 
      8    Ni1_4s Ni2_3d_z^2    4.59225     0   0   0        -0.00018 
      8    Ni1_4s Ni2_3d_xz    4.59225     0   0   0        -0.00047 
      8    Ni1_4s Ni2_3d_x^2-y^2    4.59225     0   0   0        -0.00002 
      8 Ni1_3d_xy    Ni2_4s    4.59225     0   0   0        -0.00023 
      8 Ni1_3d_xy Ni2_3d_xy    4.59225     0   0   0        -0.00004 
      8 Ni1_3d_xy Ni2_3d_yz    4.59225     0   0   0        -0.00001 
      8 Ni1_3d_xy Ni2_3d_z^2    4.59225     0   0   0         0.00000 
      8 Ni1_3d_xy Ni2_3d_xz    4.59225     0   0   0         0.00002 
      8 Ni1_3d_xy Ni2_3d_x^2-y^2    4.59225     0   0   0        -0.00001 
      8 Ni1_3d_yz    Ni2_4s    4.59225     0   0   0        -0.00036 
      8 Ni1_3d_yz Ni2_3d_xy    4.59225     0   0   0        -0.00000 
      8 Ni1_3d_yz Ni2_3d_yz    4.59225     0   0   0         0.00023 
      8 Ni1_3d_yz Ni2_3d_z^2    4.59225     0   0   0        -0.00023 
      8 Ni1_3d_yz Ni2_3d_xz    4.59225     0   0   0         0.00002 
      8 Ni1_3d_yz Ni2_3d_x^2-y^2    4.59225     0   0   0        -0.00007 
      8 Ni1_3d_z^2    Ni2_4s    4.59225     0   0   0        -0.00001 
      8 Ni1_3d_z^2 Ni2_3d_xy    4.59225     0   0   0         0.00004 
      8 Ni1_3d_z^2 Ni2_3d_yz    4.59225     0   0   0         0.00010 
      8 Ni1_3d_z^2 Ni2_3d_z^2    4.59225     0   0   0         0.00034 
      8 Ni1_3d_z^2 Ni2_3d_xz    4.59225     0   0   0        -0.00004 
      8 Ni1_3d_z^2 Ni2_3d_x^2-y^2    4.59225     0   0   0         0.00002 
      8 Ni1_3d_xz    Ni2_4s    4.59225     0   0   0        -0.00024 
      8 Ni1_3d_xz Ni2_3d_xy    4.59225     0   0   0        -0.00001 
      8 Ni1_3d_xz Ni2_3d_yz    4.59225     0   0   0         0.00005 
      8 Ni1_3d_xz Ni2_3d_z^2    4.59225     0   0   0        -0.00006 
      8 Ni1_3d_xz Ni2_3d_xz    4.59225     0   0   0        -0.00001 
      8 Ni1_3d_xz Ni2_3d_x^2-y^2    4.59225     0   0   0        -0.00003 
      8 Ni1_3d_x^2-y^2    Ni2_4s    4.59225     0   0   0        -0.00000 
      8 Ni1_3d_x^2-y^2 Ni2_3d_xy    4.59225     0   0   0         0.00000 
      8 Ni1_3d_x^2-y^2 Ni2_3d_yz    4.59225     0   0   0        -0.00012 
      8 Ni1_3d_x^2-y^2 Ni2_3d_z^2    4.59225     0   0   0        -0.00004 
      8 Ni1_3d_x^2-y^2 Ni2_3d_xz    4.59225     0   0   0        -0.00009 
      8 Ni1_3d_x^2-y^2 Ni2_3d_x^2-y^2    4.59225     0   0   0         0.00084 
      9       Ni1       Ni2    4.59225     0   0   1         0.00528 
      9    Ni1_4s    Ni2_4s    4.59225     0   0   1         0.00608 
      9    Ni1_4s Ni2_3d_xy    4.59225     0   0   1        -0.00004 
      9    Ni1_4s Ni2_3d_yz    4.59225     0   0   1        -0.00013 
      9    Ni1_4s Ni2_3d_z^2    4.59225     0   0   1        -0.00018 
      9    Ni1_4s Ni2_3d_xz    4.59225     0   0   1        -0.00047 
      9    Ni1_4s Ni2_3d_x^2-y^2    4.59225     0   0   1        -0.00002 
      9 Ni1_3d_xy    Ni2_4s    4.59225     0   0   1        -0.00023 
      9 Ni1_3d_xy Ni2_3d_xy    4.59225     0   0   1        -0.00004 
      9 Ni1_3d_xy Ni2_3d_yz    4.59225     0   0   1        -0.00001 
      9 Ni1_3d_xy Ni2_3d_z^2    4.59225     0   0   1         0.00000 
      9 Ni1_3d_xy Ni2_3d_xz    4.59225     0   0   1         0.00002 
      9 Ni1_3d_xy Ni2_3d_x^2-y^2    4.59225     0   0   1        -0.00002 
      9 Ni1_3d_yz    Ni2_4s    4.59225     0   0   1        -0.00036 
      9 Ni1_3d_yz Ni2_3d_xy    4.59225     0   0   1        -0.00000 
      9 Ni1_3d_yz Ni2_3d_yz    4.59225     0   0   1         0.00024 
      9 Ni1_3d_yz Ni2_3d_z^2    4.59225     0   0   1        -0.00023 
      9 Ni1_3d_yz Ni2_3d_xz    4.59225     0   0   1         0.00002 
      9 Ni1_3d_yz Ni2_3d_x^2-y^2    4.59225     0   0   1        -0.00007 
      9 Ni1_3d_z^2    Ni2_4s    4.59225     0   0   1        -0.00001 
      9 Ni1_3d_z^2 Ni2_3d_xy    4.59225     0   0   1         0.00004 
      9 Ni1_3d_z^2 Ni2_3d_yz    4.59225     0   0   1         0.00010 
      9 Ni1_3d_z^2 Ni2_3d_z^2    4.59225     0   0   1         0.00033 
      9 Ni1_3d_z^2 Ni2_3d_xz    4.59225     0   0   1        -0.00004 
      9 Ni1_3d_z^2 Ni2_3d_x^2-y^2    4.59225     0   0   1         0.00001 
      9 Ni1_3d_xz    Ni2_4s    4.59225     0   0   1        -0.00024 
      9 Ni1_3d_xz Ni2_3d_xy    4.59225     0   0   1        -0.00001 
      9 Ni1_3d_xz Ni2_3d_yz    4.59225     0   0   1         0.00004 
      9 Ni1_3d_xz Ni2_3d_z^2    4.59225     0   0   1        -0.00006 
      9 Ni1_3d_xz Ni2_3d_xz    4.59225     0   0   1        -0.00001 
      9 Ni1_3d_xz Ni2_3d_x^2-y^2    4.59225     0   0   1        -0.00003 
      9 Ni1_3d_x^2-y^2    Ni2_4s    4.59225     0   0   1        -0.00000 
      9 Ni1_3d_x^2-y^2 Ni2_3d_xy    4.59225     0   0   1         0.00000 
      9 Ni1_3d_x^2-y^2 Ni2_3d_yz    4.59225     0   0   1        -0.00012 
      9 Ni1_3d_x^2-y^2 Ni2_3d_z^2    4.59225     0   0   1        -0.00004 
      9 Ni1_3d_x^2-y^2 Ni2_3d_xz    4.59225     0   0   1        -0.00009 
      9 Ni1_3d_x^2-y^2 Ni2_3d_x^2-y^2    4.59225     0   0   1         0.00084 
     10       Ni1        N3    4.78232    -2  -2   0        -0.00131 
     10    Ni1_4s     N3_2s    4.78232    -2  -2   0        -0.00068 
     10    Ni1_4s   N3_2p_y    4.78232    -2  -2   0        -0.00037 
     10    Ni1_4s   N3_2p_z    4.78232    -2  -2   0         0.00002 
     10    Ni1_4s   N3_2p_x    4.78232    -2  -2   0        -0.00041 
     10 Ni1_3d_xy     N3_2s    4.78232    -2  -2   0        -0.00005 
     10 Ni1_3d_xy   N3_2p_y    4.78232    -2  -2   0         0.00000 
     10 Ni1_3d_xy   N3_2p_z    4.78232    -2  -2   0        -0.00000 
     10 Ni1_3d_xy   N3_2p_x    4.78232    -2  -2   0        -0.00001 
     10 Ni1_3d_yz     N3_2s    4.78232    -2  -2   0        -0.00004 
     10 Ni1_3d_yz   N3_2p_y    4.78232    -2  -2   0        -0.00000 
     10 Ni1_3d_yz   N3_2p_z    4.78232    -2  -2   0         0.00000 
     10 Ni1_3d_yz   N3_2p_x    4.78232    -2  -2   0         0.00000 
     10 Ni1_3d_z^2     N3_2s    4.78232    -2  -2   0         0.00000 
     10 Ni1_3d_z^2   N3_2p_y    4.78232    -2  -2   0        -0.00000 
     10 Ni1_3d_z^2   N3_2p_z    4.78232    -2  -2   0         0.00016 
     10 Ni1_3d_z^2   N3_2p_x    4.78232    -2  -2   0         0.00004 
     10 Ni1_3d_xz     N3_2s    4.78232    -2  -2   0         0.00002 
     10 Ni1_3d_xz   N3_2p_y    4.78232    -2  -2   0         0.00000 
     10 Ni1_3d_xz   N3_2p_z    4.78232    -2  -2   0         0.00010 
     10 Ni1_3d_xz   N3_2p_x    4.78232    -2  -2   0         0.00005 
     10 Ni1_3d_x^2-y^2     N3_2s    4.78232    -2  -2   0        -0.00001 
     10 Ni1_3d_x^2-y^2   N3_2p_y    4.78232    -2  -2   0         0.00001 
     10 Ni1_3d_x^2-y^2   N3_2p_z    4.78232    -2  -2   0        -0.00014 
     10 Ni1_3d_x^2-y^2   N3_2p_x    4.78232    -2  -2   0         0.00000 
     11       Ni1        N3    4.78232    -1  -2   0        -0.00127 
     11    Ni1_4s     N3_2s    4.78232    -1  -2   0        -0.00070 
     11    Ni1_4s   N3_2p_y    4.78232    -1  -2   0        -0.00005 
     11    Ni1_4s   N3_2p_z    4.78232    -1  -2   0        -0.00029 
     11    Ni1_4s   N3_2p_x    4.78232    -1  -2   0        -0.00036 
     11 Ni1_3d_xy     N3_2s    4.78232    -1  -2   0         0.00005 
     11 Ni1_3d_xy   N3_2p_y    4.78232    -1  -2   0         0.00006 
     11 Ni1_3d_xy   N3_2p_z    4.78232    -1  -2   0         0.00004 
     11 Ni1_3d_xy   N3_2p_x    4.78232    -1  -2   0         0.00003 
     11 Ni1_3d_yz     N3_2s    4.78232    -1  -2   0        -0.00005 
     11 Ni1_3d_yz   N3_2p_y    4.78232    -1  -2   0        -0.00000 
     11 Ni1_3d_yz   N3_2p_z    4.78232    -1  -2   0        -0.00000 
     11 Ni1_3d_yz   N3_2p_x    4.78232    -1  -2   0         0.00001 
     11 Ni1_3d_z^2     N3_2s    4.78232    -1  -2   0         0.00002 
     11 Ni1_3d_z^2   N3_2p_y    4.78232    -1  -2   0        -0.00009 
     11 Ni1_3d_z^2   N3_2p_z    4.78232    -1  -2   0         0.00001 
     11 Ni1_3d_z^2   N3_2p_x    4.78232    -1  -2   0         0.00001 
     11 Ni1_3d_xz     N3_2s    4.78232    -1  -2   0        -0.00009 
     11 Ni1_3d_xz   N3_2p_y    4.78232    -1  -2   0         0.00000 
     11 Ni1_3d_xz   N3_2p_z    4.78232    -1  -2   0        -0.00000 
     11 Ni1_3d_xz   N3_2p_x    4.78232    -1  -2   0         0.00000 
     11 Ni1_3d_x^2-y^2     N3_2s    4.78232    -1  -2   0        -0.00001 
     11 Ni1_3d_x^2-y^2   N3_2p_y    4.78232    -1  -2   0         0.00003 
     11 Ni1_3d_x^2-y^2   N3_2p_z    4.78232    -1  -2   0         0.00007 
     11 Ni1_3d_x^2-y^2   N3_2p_x    4.78232    -1  -2   0         0.00002 
     12       Ni1        N3    3.68051    -2  -1   0        -0.00352 
     12    Ni1_4s     N3_2s    3.68051    -2  -1   0        -0.00013 
     12    Ni1_4s   N3_2p_y    3.68051    -2  -1   0        -0.00064 
     12    Ni1_4s   N3_2p_z    3.68051    -2  -1   0        -0.00188 
     12    Ni1_4s   N3_2p_x    3.68051    -2  -1   0        -0.00056 
     12 Ni1_3d_xy     N3_2s    3.68051    -2  -1   0        -0.00017 
     12 Ni1_3d_xy   N3_2p_y    3.68051    -2  -1   0         0.00000 
     12 Ni1_3d_xy   N3_2p_z    3.68051    -2  -1   0        -0.00001 
     12 Ni1_3d_xy   N3_2p_x    3.68051    -2  -1   0         0.00011 
     12 Ni1_3d_yz     N3_2s    3.68051    -2  -1   0         0.00002 
     12 Ni1_3d_yz   N3_2p_y    3.68051    -2  -1   0        -0.00010 
     12 Ni1_3d_yz   N3_2p_z    3.68051    -2  -1   0         0.00027 
     12 Ni1_3d_yz   N3_2p_x    3.68051    -2  -1   0        -0.00033 
     12 Ni1_3d_z^2     N3_2s    3.68051    -2  -1   0         0.00026 
     12 Ni1_3d_z^2   N3_2p_y    3.68051    -2  -1   0        -0.00004 
     12 Ni1_3d_z^2   N3_2p_z    3.68051    -2  -1   0        -0.00012 
     12 Ni1_3d_z^2   N3_2p_x    3.68051    -2  -1   0        -0.00008 
     12 Ni1_3d_xz     N3_2s    3.68051    -2  -1   0         0.00001 
     12 Ni1_3d_xz   N3_2p_y    3.68051    -2  -1   0         0.00010 
     12 Ni1_3d_xz   N3_2p_z    3.68051    -2  -1   0         0.00001 
     12 Ni1_3d_xz   N3_2p_x    3.68051    -2  -1   0        -0.00019 
     12 Ni1_3d_x^2-y^2     N3_2s    3.68051    -2  -1   0        -0.00000 
     12 Ni1_3d_x^2-y^2   N3_2p_y    3.68051    -2  -1   0        -0.00003 
     12 Ni1_3d_x^2-y^2   N3_2p_z    3.68051    -2  -1   0        -0.00000 
     12 Ni1_3d_x^2-y^2   N3_2p_x    3.68051    -2  -1   0         0.00000 
     13       Ni1        N3    2.05469    -1  -1   0        -1.61054 
     13    Ni1_4s     N3_2s    2.05469    -1  -1   0        -0.45707 
     13    Ni1_4s   N3_2p_y    2.05469    -1  -1   0        -0.07705 
     13    Ni1_4s   N3_2p_z    2.05469    -1  -1   0        -0.23164 
     13    Ni1_4s   N3_2p_x    2.05469    -1  -1   0        -0.18388 
     13 Ni1_3d_xy     N3_2s    2.05469    -1  -1   0         0.00010 
     13 Ni1_3d_xy   N3_2p_y    2.05469    -1  -1   0        -0.02952 
     13 Ni1_3d_xy   N3_2p_z    2.05469    -1  -1   0        -0.00122 