 vasp.6.1.1 19Jun20 (build Jul 16 2020 13:59:08) complex                        
  
 executed on          IFC19_ompi3 date 2024.11.18  11:52:36
 running on   64 total cores
 distrk:  each k-point on   64 cores,    1 groups
 distr:  one band on NCORE=  16 cores,    4 groups


--------------------------------------------------------------------------------------------------------


 INCAR:
 POTCAR:    PAW_PBE Ni 02Aug2007                  
 POTCAR:    PAW_PBE N 08Apr2002                   
 POTCAR:    PAW_PBE C 08Apr2002                   
 POTCAR:    PAW_PBE Ni 02Aug2007                  
   VRHFIN =Ni:                                                                                      
   LEXCH  = PE                                                                                      
   EATOM  =  1077.6739 eV,   79.2068 Ry                                                             
                                                                                                    
   TITEL  = PAW_PBE Ni 02Aug2007                                                                    
   LULTRA =        F    use ultrasoft PP ?                                                          
   IUNSCR =        1    unscreen: 0-lin 1-nonlin 2-no                                               
   RPACOR =    2.000    partial core radius                                                         
   POMASS =   58.690; ZVAL   =   10.000    mass and valenz                                          
   RCORE  =    2.300    outmost cutoff radius                                                       
   RWIGS  =    2.430; RWIGS  =    1.286    wigner-seitz radius (au A)                               
   ENMAX  =  269.532; ENMIN  =  202.149 eV                                                          
   RCLOC  =    1.201    cutoff for local pot                                                        
   LCOR   =        T    correct aug charges                                                         
   LPAW   =        T    paw PP                                                                      
   EAUG   =  544.565                                                                                
   DEXC   =    0.000                                                                                
   RMAX   =    2.357    core radius for proj-oper                                                   
   RAUG   =    1.300    factor for augmentation sphere                                              
   RDEP   =    2.390    radius for radial grids                                                     
   RDEPT  =    1.838    core radius for aug-charge                                                  
                                                                                                    
   Atomic configuration                                                                             
    9 entries                                                                                       
     n  l   j            E        occ.                                                              
     1  0  0.50     -8206.4253   2.0000                                                             
     2  0  0.50      -976.1748   2.0000                                                             
     2  1  1.50      -839.0571   6.0000                                                             
     3  0  0.50      -105.9991   2.0000                                                             
     3  1  1.50       -66.4603   6.0000                                                             
     3  2  2.50        -4.6458   9.0000                                                             
     4  0  0.50        -4.4926   1.0000                                                             
     4  1  1.50        -4.0817   0.0000                                                             
     4  3  2.50        -1.3606   0.0000                                                             
   Description                                                                                      
     l       E           TYP  RCUT    TYP  RCUT                                                     
     2     -4.6457903     23  2.300                                                                 
     2     -6.0063729     23  2.300                                                                 
     0     -4.4925590     23  2.300                                                                 
     0      5.0102601     23  2.300                                                                 
     1     -2.7211652     23  2.300                                                                 
     1     16.5183231     23  2.300                                                                 
  local pseudopotential read in
  partial core-charges read in
  partial kinetic energy density read in
  atomic valenz-charges read in
  non local Contribution for L=           2  read in
    real space projection operators read in
  non local Contribution for L=           2  read in
    real space projection operators read in
  non local Contribution for L=           0  read in
    real space projection operators read in
  non local Contribution for L=           0  read in
    real space projection operators read in
  non local Contribution for L=           1  read in
    real space projection operators read in
  non local Contribution for L=           1  read in
    real space projection operators read in
    PAW grid and wavefunctions read in
 
   number of l-projection  operators is LMAX  =           6
   number of lm-projection operators is LMMAX =          18
 
 POTCAR:    PAW_PBE N 08Apr2002                   
   VRHFIN =N: s2p3                                                                                  
   LEXCH  = PE                                                                                      
   EATOM  =   264.5486 eV,   19.4438 Ry                                                             
                                                                                                    
   TITEL  = PAW_PBE N 08Apr2002                                                                     
   LULTRA =        F    use ultrasoft PP ?                                                          
   IUNSCR =        1    unscreen: 0-lin 1-nonlin 2-no                                               
   RPACOR =    1.200    partial core radius                                                         
   POMASS =   14.001; ZVAL   =    5.000    mass and valenz                                          
   RCORE  =    1.500    outmost cutoff radius                                                       
   RWIGS  =    1.400; RWIGS  =    0.741    wigner-seitz radius (au A)                               
   ENMAX  =  400.000; ENMIN  =  300.000 eV                                                          
   ICORE  =        2    local potential                                                             
   LCOR   =        T    correct aug charges                                                         
   LPAW   =        T    paw PP                                                                      
   EAUG   =  627.112                                                                                
   DEXC   =    0.000                                                                                
   RMAX   =    1.529    core radius for proj-oper                                                   
   RAUG   =    1.300    factor for augmentation sphere                                              
   RDEP   =    1.514    radius for radial grids                                                     
   RDEPT  =    1.338    core radius for aug-charge                                                  
                                                                                                    
   Atomic configuration                                                                             
    4 entries                                                                                       
     n  l   j            E        occ.                                                              
     1  0  0.50      -384.7179   2.0000                                                             
     2  0  0.50       -18.5828   2.0000                                                             
     2  1  0.50        -7.0898   3.0000                                                             
     3  2  1.50        -6.8029   0.0000                                                             
   Description                                                                                      
     l       E           TYP  RCUT    TYP  RCUT                                                     
     0    -18.5828119     23  1.200                                                                 
     0    -13.5018863     23  1.200                                                                 
     1     -7.0897853     23  1.500                                                                 
     1      9.5240782     23  1.500                                                                 
     2     -6.8029130      7  1.500                                                                 
  local pseudopotential read in
  partial core-charges read in
  partial kinetic energy density read in
  atomic valenz-charges read in
  non local Contribution for L=           0  read in
    real space projection operators read in
  non local Contribution for L=           0  read in
    real space projection operators read in
  non local Contribution for L=           1  read in
    real space projection operators read in
  non local Contribution for L=           1  read in
    real space projection operators read in
    PAW grid and wavefunctions read in
 
   number of l-projection  operators is LMAX  =           4
   number of lm-projection operators is LMMAX =           8
 
 POTCAR:    PAW_PBE C 08Apr2002                   
   VRHFIN =C: s2p2                                                                                  
   LEXCH  = PE                                                                                      
   EATOM  =   147.1560 eV,   10.8157 Ry                                                             
                                                                                                    
   TITEL  = PAW_PBE C 08Apr2002                                                                     
   LULTRA =        F    use ultrasoft PP ?                                                          
   IUNSCR =        1    unscreen: 0-lin 1-nonlin 2-no                                               
   RPACOR =    1.200    partial core radius                                                         
   POMASS =   12.011; ZVAL   =    4.000    mass and valenz                                          
   RCORE  =    1.500    outmost cutoff radius                                                       
   RWIGS  =    1.630; RWIGS  =    0.863    wigner-seitz radius (au A)                               
   ENMAX  =  400.000; ENMIN  =  300.000 eV                                                          
   ICORE  =        2    local potential                                                             
   LCOR   =        T    correct aug charges                                                         
   LPAW   =        T    paw PP                                                                      
   EAUG   =  644.873                                                                                
   DEXC   =    0.000                                                                                
   RMAX   =    1.529    core radius for proj-oper                                                   
   RAUG   =    1.300    factor for augmentation sphere                                              
   RDEP   =    1.501    radius for radial grids                                                     
   RDEPT  =    1.300    core radius for aug-charge                                                  
                                                                                                    
   Atomic configuration                                                                             
    4 entries                                                                                       
     n  l   j            E        occ.                                                              
     1  0  0.50      -273.3789   2.0000                                                             
     2  0  0.50       -13.7508   2.0000                                                             
     2  1  0.50        -5.2854   2.0000                                                             
     3  2  1.50        -5.4423   0.0000                                                             
   Description                                                                                      
     l       E           TYP  RCUT    TYP  RCUT                                                     
     0    -13.7508458     23  1.200                                                                 
     0     -8.2022199     23  1.200                                                                 
     1     -5.2854383     23  1.500                                                                 
     1     34.0145650     23  1.500                                                                 
     2     -5.4423304      7  1.500                                                                 
  local pseudopotential read in
  partial core-charges read in
  partial kinetic energy density read in
  atomic valenz-charges read in
  non local Contribution for L=           0  read in
    real space projection operators read in
  non local Contribution for L=           0  read in
    real space projection operators read in
  non local Contribution for L=           1  read in
    real space projection operators read in
  non local Contribution for L=           1  read in
    real space projection operators read in
    PAW grid and wavefunctions read in
 
   number of l-projection  operators is LMAX  =           4
   number of lm-projection operators is LMMAX =           8
 
  PAW_PBE Ni 02Aug2007                  :
 energy of atom  1       EATOM=-1077.6739
 kinetic energy error for atom=    0.0006 (will be added to EATOM!!)
  PAW_PBE N 08Apr2002                   :
 energy of atom  2       EATOM= -264.5486
 kinetic energy error for atom=    0.0029 (will be added to EATOM!!)
  PAW_PBE C 08Apr2002                   :
 energy of atom  3       EATOM= -147.1560
 kinetic energy error for atom=    0.0016 (will be added to EATOM!!)
 
 
 POSCAR: Nickel carbodiimide
  positions in direct lattice
  velocities in cartesian coordinates
 exchange correlation table for  LEXCH =        8
   RHO(1)=    0.500       N(1)  =     2000
   RHO(2)=  100.500       N(2)  =     4000
 


--------------------------------------------------------------------------------------------------------


 ion  position               nearest neighbor table
   1  0.000  0.000  0.500-   4 2.05   4 2.05   4 2.05   3 2.05   3 2.05   3 2.05
   2  0.000  0.000  0.000-   5 2.05   5 2.05   5 2.05   6 2.05   6 2.05   6 2.05
   3  0.667  0.333  0.385-   7 1.24   1 2.05   1 2.05   1 2.05
   4  0.333  0.667  0.615-   8 1.24   1 2.05   1 2.05   1 2.05
   5  0.333  0.667  0.885-   8 1.24   2 2.05   2 2.05   2 2.05
   6  0.667  0.333  0.115-   7 1.24   2 2.05   2 2.05   2 2.05
   7  0.667  0.333  0.250-   3 1.24   6 1.24
   8  0.333  0.667  0.750-   4 1.24   5 1.24
 

IMPORTANT INFORMATION: All symmetrisations will be switched off!
NOSYMM: (Re-)initialisation of all symmetry stuff for point group C_1.


----------------------------------------------------------------------------------------

                                     Primitive cell                                     

  volume of cell :      74.1667

  direct lattice vectors                    reciprocal lattice vectors
     3.053593955  0.000000000  0.000000000     0.327482964  0.189072378  0.000000000
    -1.526796977  2.644489938  0.000000000    -0.000000000  0.378144755  0.000000000
     0.000000000  0.000000000  9.184506200     0.000000000  0.000000000  0.108879016

  length of vectors
     3.053593955  3.053593955  9.184506200     0.378144755  0.378144755  0.108879016

  position of ions in fractional coordinates (direct lattice)
     0.000000000  0.000000000  0.500000000
     0.000000000  0.000000000  0.000000000
     0.666666687  0.333333343  0.385103381
     0.333333313  0.666666627  0.614896589
     0.333333313  0.666666627  0.885103411
     0.666666687  0.333333343  0.114896619
     0.666666687  0.333333343  0.250000000
     0.333333313  0.666666627  0.750000000

  ion indices of the primitive-cell ions
   primitive index   ion index
                 1           1
                 2           2
                 3           3
                 4           4
                 5           5
                 6           6
                 7           7
                 8           8

----------------------------------------------------------------------------------------

 
 
 KPOINTS: KPOINTS generated by pytray 0.02        

Automatic generation of k-mesh.
Space group operators:
 irot       det(A)        alpha          n_x          n_y          n_z        tau_x        tau_y        tau_z
    1     1.000000     0.000000     1.000000     0.000000     0.000000     0.000000     0.000000     0.000000
 TETIRR: Found   6496 inequivalent tetrahedra from    12996
 
 Subroutine IBZKPT returns following result:
 ===========================================
 
 Found   1084 irreducible k-points:
 
 Following reciprocal coordinates:
            Coordinates               Weight
  0.000000  0.000000  0.000000      1.000000
  0.052632  0.000000  0.000000      2.000000
  0.052632 -0.052632  0.000000      2.000000
  0.000000 -0.052632  0.000000      2.000000
  0.105263  0.000000  0.000000      2.000000
  0.105263 -0.105263  0.000000      2.000000
  0.000000 -0.105263  0.000000      2.000000
  0.157895  0.000000  0.000000      2.000000
  0.157895 -0.157895  0.000000      2.000000
  0.000000 -0.157895  0.000000      2.000000
  0.210526  0.000000  0.000000      2.000000
  0.210526 -0.210526  0.000000      2.000000
  0.000000 -0.210526  0.000000      2.000000
  0.263158  0.000000  0.000000      2.000000
  0.263158 -0.263158  0.000000      2.000000
  0.000000 -0.263158  0.000000      2.000000
  0.315789  0.000000  0.000000      2.000000
  0.315789 -0.315789  0.000000      2.000000
 -0.000000 -0.315789  0.000000      2.000000
  0.368421  0.000000  0.000000      2.000000
  0.368421 -0.368421  0.000000      2.000000
  0.000000 -0.368421  0.000000      2.000000
  0.421053  0.000000  0.000000      2.000000
  0.421053 -0.421053  0.000000      2.000000
  0.000000 -0.421053  0.000000      2.000000
  0.473684  0.000000  0.000000      2.000000
  0.473684 -0.473684  0.000000      2.000000
  0.000000 -0.473684  0.000000      2.000000
  0.052632  0.052632  0.000000      2.000000
  0.105263 -0.052632  0.000000      2.000000
  0.052632 -0.105263  0.000000      2.000000
  0.105263  0.052632  0.000000      2.000000
  0.157895 -0.105263  0.000000      2.000000
  0.052632 -0.157895  0.000000      2.000000
 -0.052632 -0.105263  0.000000      2.000000
  0.105263 -0.157895  0.000000      2.000000
  0.157895 -0.052632  0.000000      2.000000
  0.157895  0.052632  0.000000      2.000000
  0.210526 -0.157895  0.000000      2.000000
  0.052632 -0.210526  0.000000      2.000000
 -0.052632 -0.157895  0.000000      2.000000
  0.157895 -0.210526  0.000000      2.000000
  0.210526 -0.052632  0.000000      2.000000
  0.210526  0.052632  0.000000      2.000000
  0.263158 -0.210526  0.000000      2.000000
  0.052632 -0.263158  0.000000      2.000000
 -0.052632 -0.210526  0.000000      2.000000
  0.210526 -0.263158  0.000000      2.000000
  0.263158 -0.052632  0.000000      2.000000
  0.263158  0.052632  0.000000      2.000000
  0.315789 -0.263158  0.000000      2.000000
  0.052632 -0.315789  0.000000      2.000000
 -0.052632 -0.263158  0.000000      2.000000
  0.263158 -0.315789  0.000000      2.000000
  0.315789 -0.052632  0.000000      2.000000
  0.315789  0.052632  0.000000      2.000000
  0.368421 -0.315789  0.000000      2.000000
  0.052632 -0.368421  0.000000      2.000000
 -0.052632 -0.315789  0.000000      2.000000
  0.315789 -0.368421  0.000000      2.000000
  0.368421 -0.052632  0.000000      2.000000
  0.368421  0.052632  0.000000      2.000000
  0.421053 -0.368421  0.000000      2.000000
  0.052632 -0.421053  0.000000      2.000000
 -0.052632 -0.368421  0.000000      2.000000
  0.368421 -0.421053  0.000000      2.000000
  0.421053 -0.052632  0.000000      2.000000
  0.421053  0.052632  0.000000      2.000000
  0.473684 -0.421053  0.000000      2.000000
  0.052632 -0.473684  0.000000      2.000000
 -0.052632 -0.421053  0.000000      2.000000
  0.421053 -0.473684  0.000000      2.000000
  0.473684 -0.052632  0.000000      2.000000
  0.473684  0.052632  0.000000      2.000000
 -0.473684 -0.473684  0.000000      2.000000
  0.052632  0.473684  0.000000      2.000000
  0.105263  0.105263  0.000000      2.000000
  0.210526 -0.105263  0.000000      2.000000
  0.105263 -0.210526  0.000000      2.000000
  0.157895  0.105263  0.000000      2.000000
  0.263158 -0.157895  0.000000      2.000000
  0.105263 -0.263158  0.000000      2.000000
 -0.105263 -0.157895  0.000000      2.000000
  0.157895 -0.263158  0.000000      2.000000
  0.263158 -0.105263  0.000000      2.000000
  0.210526  0.105263  0.000000      2.000000
  0.315789 -0.210526  0.000000      2.000000
  0.105263 -0.315789  0.000000      2.000000
 -0.105263 -0.210526  0.000000      2.000000
  0.210526 -0.315789  0.000000      2.000000
  0.315789 -0.105263  0.000000      2.000000
  0.263158  0.105263  0.000000      2.000000
  0.368421 -0.263158  0.000000      2.000000
  0.105263 -0.368421  0.000000      2.000000
 -0.105263 -0.263158  0.000000      2.000000
  0.263158 -0.368421  0.000000      2.000000
  0.368421 -0.105263  0.000000      2.000000
  0.315789  0.105263  0.000000      2.000000
  0.421053 -0.315789  0.000000      2.000000
  0.105263 -0.421053  0.000000      2.000000
 -0.105263 -0.315789  0.000000      2.000000
  0.315789 -0.421053  0.000000      2.000000
  0.421053 -0.105263  0.000000      2.000000
  0.368421  0.105263  0.000000      2.000000
  0.473684 -0.368421  0.000000      2.000000
  0.105263 -0.473684  0.000000      2.000000
 -0.105263 -0.368421  0.000000      2.000000
  0.368421 -0.473684  0.000000      2.000000
  0.473684 -0.105263  0.000000      2.000000
  0.421053  0.105263  0.000000      2.000000
 -0.473684 -0.421053  0.000000      2.000000
  0.105263  0.473684  0.000000      2.000000
 -0.105263 -0.421053  0.000000      2.000000
  0.421053  0.473684  0.000000      2.000000
 -0.473684 -0.105263  0.000000      2.000000
  0.157895  0.157895  0.000000      2.000000
  0.315789 -0.157895  0.000000      2.000000
  0.157895 -0.315789  0.000000      2.000000
  0.210526  0.157895  0.000000      2.000000
  0.368421 -0.210526  0.000000      2.000000
  0.157895 -0.368421  0.000000      2.000000
 -0.157895 -0.210526  0.000000      2.000000
  0.210526 -0.368421  0.000000      2.000000
  0.368421 -0.157895  0.000000      2.000000
  0.263158  0.157895  0.000000      2.000000
  0.421053 -0.263158  0.000000      2.000000
  0.157895 -0.421053  0.000000      2.000000
 -0.157895 -0.263158  0.000000      2.000000
  0.263158 -0.421053  0.000000      2.000000
  0.421053 -0.157895  0.000000      2.000000
  0.315789  0.157895  0.000000      2.000000
  0.473684 -0.315789  0.000000      2.000000
  0.157895 -0.473684  0.000000      2.000000
 -0.157895 -0.315789  0.000000      2.000000
  0.315789 -0.473684  0.000000      2.000000
  0.473684 -0.157895  0.000000      2.000000
  0.368421  0.157895  0.000000      2.000000
 -0.473684 -0.368421  0.000000      2.000000
  0.157895  0.473684  0.000000      2.000000
 -0.157895 -0.368421  0.000000      2.000000
  0.368421  0.473684  0.000000      2.000000
 -0.473684 -0.157895  0.000000      2.000000
  0.421053  0.157895  0.000000      2.000000
 -0.421053 -0.421053  0.000000      2.000000
  0.157895  0.421053  0.000000      2.000000
  0.210526  0.210526  0.000000      2.000000
  0.421053 -0.210526  0.000000      2.000000
  0.210526 -0.421053  0.000000      2.000000
  0.263158  0.210526  0.000000      2.000000
  0.473684 -0.263158  0.000000      2.000000
  0.210526 -0.473684  0.000000      2.000000
 -0.210526 -0.263158  0.000000      2.000000
  0.263158 -0.473684  0.000000      2.000000
  0.473684 -0.210526  0.000000      2.000000
  0.315789  0.210526  0.000000      2.000000
 -0.473684 -0.315789  0.000000      2.000000
  0.210526  0.473684  0.000000      2.000000
 -0.210526 -0.315789  0.000000      2.000000
  0.315789  0.473684  0.000000      2.000000
 -0.473684 -0.210526  0.000000      2.000000
  0.368421  0.210526  0.000000      2.000000
 -0.421053 -0.368421  0.000000      2.000000
  0.210526  0.421053  0.000000      2.000000
 -0.210526 -0.368421  0.000000      2.000000
  0.368421  0.421053  0.000000      2.000000
 -0.421053 -0.210526  0.000000      2.000000
  0.263158  0.263158  0.000000      2.000000
 -0.473684 -0.263158  0.000000      2.000000
  0.263158  0.473684  0.000000      2.000000
  0.315789  0.263158  0.000000      2.000000
 -0.421053 -0.315789  0.000000      2.000000
  0.263158  0.421053  0.000000      2.000000
 -0.263158 -0.315789  0.000000      2.000000
  0.315789  0.421053  0.000000      2.000000
 -0.421053 -0.263158  0.000000      2.000000
  0.368421  0.263158  0.000000      2.000000
 -0.368421 -0.368421  0.000000      2.000000
  0.263158  0.368421  0.000000      2.000000
  0.315789  0.315789  0.000000      2.000000
 -0.368421 -0.315789  0.000000      2.000000
  0.315789  0.368421  0.000000      2.000000
  0.000000  0.000000  0.166667      2.000000
  0.052632  0.000000  0.166667      2.000000
  0.052632 -0.052632  0.166667      2.000000
  0.000000 -0.052632  0.166667      2.000000
 -0.052632 -0.000000  0.166667      2.000000
 -0.052632  0.052632  0.166667      2.000000
  0.000000  0.052632  0.166667      2.000000
  0.105263  0.000000  0.166667      2.000000
  0.105263 -0.105263  0.166667      2.000000
  0.000000 -0.105263  0.166667      2.000000
 -0.105263 -0.000000  0.166667      2.000000
 -0.105263  0.105263  0.166667      2.000000
  0.000000  0.105263  0.166667      2.000000
  0.157895  0.000000  0.166667      2.000000
  0.157895 -0.157895  0.166667      2.000000
  0.000000 -0.157895  0.166667      2.000000
 -0.157895  0.000000  0.166667      2.000000
 -0.157895  0.157895  0.166667      2.000000
 -0.000000  0.157895  0.166667      2.000000
  0.210526  0.000000  0.166667      2.000000
  0.210526 -0.210526  0.166667      2.000000
  0.000000 -0.210526  0.166667      2.000000
 -0.210526  0.000000  0.166667      2.000000
 -0.210526  0.210526  0.166667      2.000000
  0.000000  0.210526  0.166667      2.000000
  0.263158  0.000000  0.166667      2.000000
  0.263158 -0.263158  0.166667      2.000000
  0.000000 -0.263158  0.166667      2.000000
 -0.263158  0.000000  0.166667      2.000000
 -0.263158  0.263158  0.166667      2.000000
  0.000000  0.263158  0.166667      2.000000
  0.315789  0.000000  0.166667      2.000000
  0.315789 -0.315789  0.166667      2.000000
 -0.000000 -0.315789  0.166667      2.000000
 -0.315789  0.000000  0.166667      2.000000
 -0.315789  0.315789  0.166667      2.000000
  0.000000  0.315789  0.166667      2.000000
  0.368421  0.000000  0.166667      2.000000
  0.368421 -0.368421  0.166667      2.000000
  0.000000 -0.368421  0.166667      2.000000
 -0.368421  0.000000  0.166667      2.000000
 -0.368421  0.368421  0.166667      2.000000
 -0.000000  0.368421  0.166667      2.000000
  0.421053  0.000000  0.166667      2.000000
  0.421053 -0.421053  0.166667      2.000000
  0.000000 -0.421053  0.166667      2.000000
 -0.421053  0.000000  0.166667      2.000000
 -0.421053  0.421053  0.166667      2.000000
  0.000000  0.421053  0.166667      2.000000
  0.473684  0.000000  0.166667      2.000000
  0.473684 -0.473684  0.166667      2.000000
  0.000000 -0.473684  0.166667      2.000000
 -0.473684 -0.000000  0.166667      2.000000
 -0.473684  0.473684  0.166667      2.000000
 -0.000000  0.473684  0.166667      2.000000
  0.052632  0.052632  0.166667      2.000000
  0.105263 -0.052632  0.166667      2.000000
  0.052632 -0.105263  0.166667      2.000000
 -0.052632 -0.052632  0.166667      2.000000
 -0.105263  0.052632  0.166667      2.000000
 -0.052632  0.105263  0.166667      2.000000
  0.105263  0.052632  0.166667      2.000000
  0.157895 -0.105263  0.166667      2.000000
  0.052632 -0.157895  0.166667      2.000000
 -0.105263 -0.052632  0.166667      2.000000
 -0.157895  0.105263  0.166667      2.000000
 -0.052632  0.157895  0.166667      2.000000
 -0.052632 -0.105263 -0.166667      2.000000
  0.105263 -0.157895 -0.166667      2.000000
  0.157895 -0.052632 -0.166667      2.000000
  0.052632  0.105263 -0.166667      2.000000
 -0.105263  0.157895 -0.166667      2.000000
 -0.157895  0.052632 -0.166667      2.000000
  0.157895  0.052632  0.166667      2.000000
  0.210526 -0.157895  0.166667      2.000000
  0.052632 -0.210526  0.166667      2.000000
 -0.157895 -0.052632  0.166667      2.000000
 -0.210526  0.157895  0.166667      2.000000
 -0.052632  0.210526  0.166667      2.000000
 -0.052632 -0.157895 -0.166667      2.000000
  0.157895 -0.210526 -0.166667      2.000000
  0.210526 -0.052632 -0.166667      2.000000
  0.052632  0.157895 -0.166667      2.000000
 -0.157895  0.210526 -0.166667      2.000000
 -0.210526  0.052632 -0.166667      2.000000
  0.210526  0.052632  0.166667      2.000000
  0.263158 -0.210526  0.166667      2.000000
  0.052632 -0.263158  0.166667      2.000000
 -0.210526 -0.052632  0.166667      2.000000
 -0.263158  0.210526  0.166667      2.000000
 -0.052632  0.263158  0.166667      2.000000
 -0.052632 -0.210526 -0.166667      2.000000
  0.210526 -0.263158 -0.166667      2.000000
  0.263158 -0.052632 -0.166667      2.000000
  0.052632  0.210526 -0.166667      2.000000
 -0.210526  0.263158 -0.166667      2.000000
 -0.263158  0.052632 -0.166667      2.000000
  0.263158  0.052632  0.166667      2.000000
  0.315789 -0.263158  0.166667      2.000000
  0.052632 -0.315789  0.166667      2.000000
 -0.263158 -0.052632  0.166667      2.000000
 -0.315789  0.263158  0.166667      2.000000
 -0.052632  0.315789  0.166667      2.000000
 -0.052632 -0.263158 -0.166667      2.000000
  0.263158 -0.315789 -0.166667      2.000000
  0.315789 -0.052632 -0.166667      2.000000
  0.052632  0.263158 -0.166667      2.000000
 -0.263158  0.315789 -0.166667      2.000000
 -0.315789  0.052632 -0.166667      2.000000
  0.315789  0.052632  0.166667      2.000000
  0.368421 -0.315789  0.166667      2.000000
  0.052632 -0.368421  0.166667      2.000000
 -0.315789 -0.052632  0.166667      2.000000
 -0.368421  0.315789  0.166667      2.000000
 -0.052632  0.368421  0.166667      2.000000
 -0.052632 -0.315789 -0.166667      2.000000
  0.315789 -0.368421 -0.166667      2.000000
  0.368421 -0.052632 -0.166667      2.000000
  0.052632  0.315789 -0.166667      2.000000
 -0.315789  0.368421 -0.166667      2.000000
 -0.368421  0.052632 -0.166667      2.000000
  0.368421  0.052632  0.166667      2.000000
  0.421053 -0.368421  0.166667      2.000000
  0.052632 -0.421053  0.166667      2.000000
 -0.368421 -0.052632  0.166667      2.000000
 -0.421053  0.368421  0.166667      2.000000
 -0.052632  0.421053  0.166667      2.000000
 -0.052632 -0.368421 -0.166667      2.000000
  0.368421 -0.421053 -0.166667      2.000000
  0.421053 -0.052632 -0.166667      2.000000
  0.052632  0.368421 -0.166667      2.000000
 -0.368421  0.421053 -0.166667      2.000000
 -0.421053  0.052632 -0.166667      2.000000
  0.421053  0.052632  0.166667      2.000000
  0.473684 -0.421053  0.166667      2.000000
  0.052632 -0.473684  0.166667      2.000000
 -0.421053 -0.052632  0.166667      2.000000
 -0.473684  0.421053  0.166667      2.000000
 -0.052632  0.473684  0.166667      2.000000
 -0.052632 -0.421053 -0.166667      2.000000
  0.421053 -0.473684 -0.166667      2.000000
  0.473684 -0.052632 -0.166667      2.000000
  0.052632  0.421053 -0.166667      2.000000
 -0.421053  0.473684 -0.166667      2.000000
 -0.473684  0.052632 -0.166667      2.000000
  0.473684  0.052632  0.166667      2.000000
 -0.473684 -0.473684  0.166667      2.000000
  0.052632  0.473684  0.166667      2.000000
 -0.473684 -0.052632  0.166667      2.000000
  0.473684  0.473684  0.166667      2.000000
 -0.052632 -0.473684  0.166667      2.000000
  0.105263  0.105263  0.166667      2.000000
  0.210526 -0.105263  0.166667      2.000000
  0.105263 -0.210526  0.166667      2.000000
 -0.105263 -0.105263  0.166667      2.000000
 -0.210526  0.105263  0.166667      2.000000
 -0.105263  0.210526  0.166667      2.000000
  0.157895  0.105263  0.166667      2.000000
  0.263158 -0.157895  0.166667      2.000000
  0.105263 -0.263158  0.166667      2.000000
 -0.157895 -0.105263  0.166667      2.000000
 -0.263158  0.157895  0.166667      2.000000
 -0.105263  0.263158  0.166667      2.000000
 -0.105263 -0.157895 -0.166667      2.000000
  0.157895 -0.263158 -0.166667      2.000000
  0.263158 -0.105263 -0.166667      2.000000
  0.105263  0.157895 -0.166667      2.000000
 -0.157895  0.263158 -0.166667      2.000000
 -0.263158  0.105263 -0.166667      2.000000
  0.210526  0.105263  0.166667      2.000000
  0.315789 -0.210526  0.166667      2.000000
  0.105263 -0.315789  0.166667      2.000000
 -0.210526 -0.105263  0.166667      2.000000
 -0.315789  0.210526  0.166667      2.000000
 -0.105263  0.315789  0.166667      2.000000
 -0.105263 -0.210526 -0.166667      2.000000
  0.210526 -0.315789 -0.166667      2.000000
  0.315789 -0.105263 -0.166667      2.000000
  0.105263  0.210526 -0.166667      2.000000
 -0.210526  0.315789 -0.166667      2.000000
 -0.315789  0.105263 -0.166667      2.000000
  0.263158  0.105263  0.166667      2.000000
  0.368421 -0.263158  0.166667      2.000000
  0.105263 -0.368421  0.166667      2.000000
 -0.263158 -0.105263  0.166667      2.000000
 -0.368421  0.263158  0.166667      2.000000
 -0.105263  0.368421  0.166667      2.000000
 -0.105263 -0.263158 -0.166667      2.000000
  0.263158 -0.368421 -0.166667      2.000000
  0.368421 -0.105263 -0.166667      2.000000
  0.105263  0.263158 -0.166667      2.000000
 -0.263158  0.368421 -0.166667      2.000000
 -0.368421  0.105263 -0.166667      2.000000
  0.315789  0.105263  0.166667      2.000000
  0.421053 -0.315789  0.166667      2.000000
  0.105263 -0.421053  0.166667      2.000000
 -0.315789 -0.105263  0.166667      2.000000
 -0.421053  0.315789  0.166667      2.000000
 -0.105263  0.421053  0.166667      2.000000
 -0.105263 -0.315789 -0.166667      2.000000
  0.315789 -0.421053 -0.166667      2.000000
  0.421053 -0.105263 -0.166667      2.000000
  0.105263  0.315789 -0.166667      2.000000
 -0.315789  0.421053 -0.166667      2.000000
 -0.421053  0.105263 -0.166667      2.000000
  0.368421  0.105263  0.166667      2.000000
  0.473684 -0.368421  0.166667      2.000000
  0.105263 -0.473684  0.166667      2.000000
 -0.368421 -0.105263  0.166667      2.000000
 -0.473684  0.368421  0.166667      2.000000
 -0.105263  0.473684  0.166667      2.000000
 -0.105263 -0.368421 -0.166667      2.000000
  0.368421 -0.473684 -0.166667      2.000000
  0.473684 -0.105263 -0.166667      2.000000
  0.105263  0.368421 -0.166667      2.000000
 -0.368421  0.473684 -0.166667      2.000000
 -0.473684  0.105263 -0.166667      2.000000
  0.421053  0.105263  0.166667      2.000000
 -0.473684 -0.421053  0.166667      2.000000
  0.105263  0.473684  0.166667      2.000000
 -0.421053 -0.105263  0.166667      2.000000
  0.473684  0.421053  0.166667      2.000000
 -0.105263 -0.473684  0.166667      2.000000
 -0.105263 -0.421053 -0.166667      2.000000
  0.421053  0.473684 -0.166667      2.000000
 -0.473684 -0.105263 -0.166667      2.000000
  0.105263  0.421053 -0.166667      2.000000
 -0.421053 -0.473684 -0.166667      2.000000
  0.473684  0.105263 -0.166667      2.000000
  0.157895  0.157895  0.166667      2.000000
  0.315789 -0.157895  0.166667      2.000000
  0.157895 -0.315789  0.166667      2.000000
 -0.157895 -0.157895  0.166667      2.000000
 -0.315789  0.157895  0.166667      2.000000
 -0.157895  0.315789  0.166667      2.000000
  0.210526  0.157895  0.166667      2.000000
  0.368421 -0.210526  0.166667      2.000000
  0.157895 -0.368421  0.166667      2.000000
 -0.210526 -0.157895  0.166667      2.000000
 -0.368421  0.210526  0.166667      2.000000
 -0.157895  0.368421  0.166667      2.000000
 -0.157895 -0.210526 -0.166667      2.000000
  0.210526 -0.368421 -0.166667      2.000000
  0.368421 -0.157895 -0.166667      2.000000
  0.157895  0.210526 -0.166667      2.000000
 -0.210526  0.368421 -0.166667      2.000000
 -0.368421  0.157895 -0.166667      2.000000
  0.263158  0.157895  0.166667      2.000000
  0.421053 -0.263158  0.166667      2.000000
  0.157895 -0.421053  0.166667      2.000000
 -0.263158 -0.157895  0.166667      2.000000
 -0.421053  0.263158  0.166667      2.000000
 -0.157895  0.421053  0.166667      2.000000
 -0.157895 -0.263158 -0.166667      2.000000
  0.263158 -0.421053 -0.166667      2.000000
  0.421053 -0.157895 -0.166667      2.000000
  0.157895  0.263158 -0.166667      2.000000
 -0.263158  0.421053 -0.166667      2.000000
 -0.421053  0.157895 -0.166667      2.000000
  0.315789  0.157895  0.166667      2.000000
  0.473684 -0.315789  0.166667      2.000000
  0.157895 -0.473684  0.166667      2.000000
 -0.315789 -0.157895  0.166667      2.000000
 -0.473684  0.315789  0.166667      2.000000
 -0.157895  0.473684  0.166667      2.000000
 -0.157895 -0.315789 -0.166667      2.000000
  0.315789 -0.473684 -0.166667      2.000000
  0.473684 -0.157895 -0.166667      2.000000
  0.157895  0.315789 -0.166667      2.000000
 -0.315789  0.473684 -0.166667      2.000000
 -0.473684  0.157895 -0.166667      2.000000
  0.368421  0.157895  0.166667      2.000000
 -0.473684 -0.368421  0.166667      2.000000
  0.157895  0.473684  0.166667      2.000000
 -0.368421 -0.157895  0.166667      2.000000
  0.473684  0.368421  0.166667      2.000000
 -0.157895 -0.473684  0.166667      2.000000
 -0.157895 -0.368421 -0.166667      2.000000
  0.368421  0.473684 -0.166667      2.000000
 -0.473684 -0.157895 -0.166667      2.000000
  0.157895  0.368421 -0.166667      2.000000
 -0.368421 -0.473684 -0.166667      2.000000
  0.473684  0.157895 -0.166667      2.000000
  0.421053  0.157895  0.166667      2.000000
 -0.421053 -0.421053  0.166667      2.000000
  0.157895  0.421053  0.166667      2.000000
 -0.421053 -0.157895  0.166667      2.000000
  0.421053  0.421053  0.166667      2.000000
 -0.157895 -0.421053  0.166667      2.000000
  0.210526  0.210526  0.166667      2.000000
  0.421053 -0.210526  0.166667      2.000000
  0.210526 -0.421053  0.166667      2.000000
 -0.210526 -0.210526  0.166667      2.000000
 -0.421053  0.210526  0.166667      2.000000
 -0.210526  0.421053  0.166667      2.000000
  0.263158  0.210526  0.166667      2.000000
  0.473684 -0.263158  0.166667      2.000000
  0.210526 -0.473684  0.166667      2.000000
 -0.263158 -0.210526  0.166667      2.000000
 -0.473684  0.263158  0.166667      2.000000
 -0.210526  0.473684  0.166667      2.000000
 -0.210526 -0.263158 -0.166667      2.000000
  0.263158 -0.473684 -0.166667      2.000000
  0.473684 -0.210526 -0.166667      2.000000
  0.210526  0.263158 -0.166667      2.000000
 -0.263158  0.473684 -0.166667      2.000000
 -0.473684  0.210526 -0.166667      2.000000
  0.315789  0.210526  0.166667      2.000000
 -0.473684 -0.315789  0.166667      2.000000
  0.210526  0.473684  0.166667      2.000000
 -0.315789 -0.210526  0.166667      2.000000
  0.473684  0.315789  0.166667      2.000000
 -0.210526 -0.473684  0.166667      2.000000
 -0.210526 -0.315789 -0.166667      2.000000
  0.315789  0.473684 -0.166667      2.000000
 -0.473684 -0.210526 -0.166667      2.000000
  0.210526  0.315789 -0.166667      2.000000
 -0.315789 -0.473684 -0.166667      2.000000
  0.473684  0.210526 -0.166667      2.000000
  0.368421  0.210526  0.166667      2.000000
 -0.421053 -0.368421  0.166667      2.000000
  0.210526  0.421053  0.166667      2.000000
 -0.368421 -0.210526  0.166667      2.000000
  0.421053  0.368421  0.166667      2.000000
 -0.210526 -0.421053  0.166667      2.000000
 -0.210526 -0.368421 -0.166667      2.000000
  0.368421  0.421053 -0.166667      2.000000
 -0.421053 -0.210526 -0.166667      2.000000
  0.210526  0.368421 -0.166667      2.000000
 -0.368421 -0.421053 -0.166667      2.000000
  0.421053  0.210526 -0.166667      2.000000
  0.263158  0.263158  0.166667      2.000000
 -0.473684 -0.263158  0.166667      2.000000
  0.263158  0.473684  0.166667      2.000000
 -0.263158 -0.263158  0.166667      2.000000
  0.473684  0.263158  0.166667      2.000000
 -0.263158 -0.473684  0.166667      2.000000
  0.315789  0.263158  0.166667      2.000000
 -0.421053 -0.315789  0.166667      2.000000
  0.263158  0.421053  0.166667      2.000000
 -0.315789 -0.263158  0.166667      2.000000
  0.421053  0.315789  0.166667      2.000000
 -0.263158 -0.421053  0.166667      2.000000
 -0.263158 -0.315789 -0.166667      2.000000
  0.315789  0.421053 -0.166667      2.000000
 -0.421053 -0.263158 -0.166667      2.000000
  0.263158  0.315789 -0.166667      2.000000
 -0.315789 -0.421053 -0.166667      2.000000
  0.421053  0.263158 -0.166667      2.000000
  0.368421  0.263158  0.166667      2.000000
 -0.368421 -0.368421  0.166667      2.000000
  0.263158  0.368421  0.166667      2.000000
 -0.368421 -0.263158  0.166667      2.000000
  0.368421  0.368421  0.166667      2.000000
 -0.263158 -0.368421  0.166667      2.000000
  0.315789  0.315789  0.166667      2.000000
 -0.368421 -0.315789  0.166667      2.000000
  0.315789  0.368421  0.166667      2.000000
 -0.315789 -0.315789  0.166667      2.000000
  0.368421  0.315789  0.166667      2.000000
 -0.315789 -0.368421  0.166667      2.000000
  0.000000  0.000000  0.333333      2.000000
  0.052632  0.000000  0.333333      2.000000
  0.052632 -0.052632  0.333333      2.000000
  0.000000 -0.052632  0.333333      2.000000
 -0.052632 -0.000000  0.333333      2.000000
 -0.052632  0.052632  0.333333      2.000000
  0.000000  0.052632  0.333333      2.000000
  0.105263  0.000000  0.333333      2.000000
  0.105263 -0.105263  0.333333      2.000000
  0.000000 -0.105263  0.333333      2.000000
 -0.105263 -0.000000  0.333333      2.000000
 -0.105263  0.105263  0.333333      2.000000
  0.000000  0.105263  0.333333      2.000000
  0.157895  0.000000  0.333333      2.000000
  0.157895 -0.157895  0.333333      2.000000
  0.000000 -0.157895  0.333333      2.000000
 -0.157895  0.000000  0.333333      2.000000
 -0.157895  0.157895  0.333333      2.000000
 -0.000000  0.157895  0.333333      2.000000
  0.210526  0.000000  0.333333      2.000000
  0.210526 -0.210526  0.333333      2.000000
  0.000000 -0.210526  0.333333      2.000000
 -0.210526  0.000000  0.333333      2.000000
 -0.210526  0.210526  0.333333      2.000000
  0.000000  0.210526  0.333333      2.000000
  0.263158  0.000000  0.333333      2.000000
  0.263158 -0.263158  0.333333      2.000000
  0.000000 -0.263158  0.333333      2.000000
 -0.263158  0.000000  0.333333      2.000000
 -0.263158  0.263158  0.333333      2.000000
  0.000000  0.263158  0.333333      2.000000
  0.315789  0.000000  0.333333      2.000000
  0.315789 -0.315789  0.333333      2.000000
 -0.000000 -0.315789  0.333333      2.000000
 -0.315789  0.000000  0.333333      2.000000
 -0.315789  0.315789  0.333333      2.000000
  0.000000  0.315789  0.333333      2.000000
  0.368421  0.000000  0.333333      2.000000
  0.368421 -0.368421  0.333333      2.000000
  0.000000 -0.368421  0.333333      2.000000
 -0.368421  0.000000  0.333333      2.000000
 -0.368421  0.368421  0.333333      2.000000
 -0.000000  0.368421  0.333333      2.000000
  0.421053  0.000000  0.333333      2.000000
  0.421053 -0.421053  0.333333      2.000000
  0.000000 -0.421053  0.333333      2.000000
 -0.421053  0.000000  0.333333      2.000000
 -0.421053  0.421053  0.333333      2.000000
  0.000000  0.421053  0.333333      2.000000
  0.473684  0.000000  0.333333      2.000000
  0.473684 -0.473684  0.333333      2.000000
  0.000000 -0.473684  0.333333      2.000000
 -0.473684 -0.000000  0.333333      2.000000
 -0.473684  0.473684  0.333333      2.000000
 -0.000000  0.473684  0.333333      2.000000
  0.052632  0.052632  0.333333      2.000000
  0.105263 -0.052632  0.333333      2.000000
  0.052632 -0.105263  0.333333      2.000000
 -0.052632 -0.052632  0.333333      2.000000
 -0.105263  0.052632  0.333333      2.000000
 -0.052632  0.105263  0.333333      2.000000
  0.105263  0.052632  0.333333      2.000000
  0.157895 -0.105263  0.333333      2.000000
  0.052632 -0.157895  0.333333      2.000000
 -0.105263 -0.052632  0.333333      2.000000
 -0.157895  0.105263  0.333333      2.000000
 -0.052632  0.157895  0.333333      2.000000
 -0.052632 -0.105263 -0.333333      2.000000
  0.105263 -0.157895 -0.333333      2.000000
  0.157895 -0.052632 -0.333333      2.000000
  0.052632  0.105263 -0.333333      2.000000
 -0.105263  0.157895 -0.333333      2.000000
 -0.157895  0.052632 -0.333333      2.000000
  0.157895  0.052632  0.333333      2.000000
  0.210526 -0.157895  0.333333      2.000000
  0.052632 -0.210526  0.333333      2.000000
 -0.157895 -0.052632  0.333333      2.000000
 -0.210526  0.157895  0.333333      2.000000
 -0.052632  0.210526  0.333333      2.000000
 -0.052632 -0.157895 -0.333333      2.000000
  0.157895 -0.210526 -0.333333      2.000000
  0.210526 -0.052632 -0.333333      2.000000
  0.052632  0.157895 -0.333333      2.000000
 -0.157895  0.210526 -0.333333      2.000000
 -0.210526  0.052632 -0.333333      2.000000
  0.210526  0.052632  0.333333      2.000000
  0.263158 -0.210526  0.333333      2.000000
  0.052632 -0.263158  0.333333      2.000000
 -0.210526 -0.052632  0.333333      2.000000
 -0.263158  0.210526  0.333333      2.000000
 -0.052632  0.263158  0.333333      2.000000
 -0.052632 -0.210526 -0.333333      2.000000
  0.210526 -0.263158 -0.333333      2.000000
  0.263158 -0.052632 -0.333333      2.000000
  0.052632  0.210526 -0.333333      2.000000
 -0.210526  0.263158 -0.333333      2.000000
 -0.263158  0.052632 -0.333333      2.000000
  0.263158  0.052632  0.333333      2.000000
  0.315789 -0.263158  0.333333      2.000000
  0.052632 -0.315789  0.333333      2.000000
 -0.263158 -0.052632  0.333333      2.000000
 -0.315789  0.263158  0.333333      2.000000
 -0.052632  0.315789  0.333333      2.000000
 -0.052632 -0.263158 -0.333333      2.000000
  0.263158 -0.315789 -0.333333      2.000000
  0.315789 -0.052632 -0.333333      2.000000
  0.052632  0.263158 -0.333333      2.000000
 -0.263158  0.315789 -0.333333      2.000000
 -0.315789  0.052632 -0.333333      2.000000
  0.315789  0.052632  0.333333      2.000000
  0.368421 -0.315789  0.333333      2.000000
  0.052632 -0.368421  0.333333      2.000000
 -0.315789 -0.052632  0.333333      2.000000
 -0.368421  0.315789  0.333333      2.000000
 -0.052632  0.368421  0.333333      2.000000
 -0.052632 -0.315789 -0.333333      2.000000
  0.315789 -0.368421 -0.333333      2.000000
  0.368421 -0.052632 -0.333333      2.000000
  0.052632  0.315789 -0.333333      2.000000
 -0.315789  0.368421 -0.333333      2.000000
 -0.368421  0.052632 -0.333333      2.000000
  0.368421  0.052632  0.333333      2.000000
  0.421053 -0.368421  0.333333      2.000000
  0.052632 -0.421053  0.333333      2.000000
 -0.368421 -0.052632  0.333333      2.000000
 -0.421053  0.368421  0.333333      2.000000
 -0.052632  0.421053  0.333333      2.000000
 -0.052632 -0.368421 -0.333333      2.000000
  0.368421 -0.421053 -0.333333      2.000000
  0.421053 -0.052632 -0.333333      2.000000
  0.052632  0.368421 -0.333333      2.000000
 -0.368421  0.421053 -0.333333      2.000000
 -0.421053  0.052632 -0.333333      2.000000
  0.421053  0.052632  0.333333      2.000000
  0.473684 -0.421053  0.333333      2.000000
  0.052632 -0.473684  0.333333      2.000000
 -0.421053 -0.052632  0.333333      2.000000
 -0.473684  0.421053  0.333333      2.000000
 -0.052632  0.473684  0.333333      2.000000
 -0.052632 -0.421053 -0.333333      2.000000
  0.421053 -0.473684 -0.333333      2.000000
  0.473684 -0.052632 -0.333333      2.000000
  0.052632  0.421053 -0.333333      2.000000
 -0.421053  0.473684 -0.333333      2.000000
 -0.473684  0.052632 -0.333333      2.000000
  0.473684  0.052632  0.333333      2.000000
 -0.473684 -0.473684  0.333333      2.000000
  0.052632  0.473684  0.333333      2.000000
 -0.473684 -0.052632  0.333333      2.000000
  0.473684  0.473684  0.333333      2.000000
 -0.052632 -0.473684  0.333333      2.000000
  0.105263  0.105263  0.333333      2.000000
  0.210526 -0.105263  0.333333      2.000000
  0.105263 -0.210526  0.333333      2.000000
 -0.105263 -0.105263  0.333333      2.000000
 -0.210526  0.105263  0.333333      2.000000
 -0.105263  0.210526  0.333333      2.000000
  0.157895  0.105263  0.333333      2.000000
  0.263158 -0.157895  0.333333      2.000000
  0.105263 -0.263158  0.333333      2.000000
 -0.157895 -0.105263  0.333333      2.000000
 -0.263158  0.157895  0.333333      2.000000
 -0.105263  0.263158  0.333333      2.000000
 -0.105263 -0.157895 -0.333333      2.000000
  0.157895 -0.263158 -0.333333      2.000000
  0.263158 -0.105263 -0.333333      2.000000
  0.105263  0.157895 -0.333333      2.000000
 -0.157895  0.263158 -0.333333      2.000000
 -0.263158  0.105263 -0.333333      2.000000
  0.210526  0.105263  0.333333      2.000000
  0.315789 -0.210526  0.333333      2.000000
  0.105263 -0.315789  0.333333      2.000000
 -0.210526 -0.105263  0.333333      2.000000
 -0.315789  0.210526  0.333333      2.000000
 -0.105263  0.315789  0.333333      2.000000
 -0.105263 -0.210526 -0.333333      2.000000
  0.210526 -0.315789 -0.333333      2.000000
  0.315789 -0.105263 -0.333333      2.000000
  0.105263  0.210526 -0.333333      2.000000
 -0.210526  0.315789 -0.333333      2.000000
 -0.315789  0.105263 -0.333333      2.000000
  0.263158  0.105263  0.333333      2.000000
  0.368421 -0.263158  0.333333      2.000000
  0.105263 -0.368421  0.333333      2.000000
 -0.263158 -0.105263  0.333333      2.000000
 -0.368421  0.263158  0.333333      2.000000
 -0.105263  0.368421  0.333333      2.000000
 -0.105263 -0.263158 -0.333333      2.000000
  0.263158 -0.368421 -0.333333      2.000000
  0.368421 -0.105263 -0.333333      2.000000
  0.105263  0.263158 -0.333333      2.000000
 -0.263158  0.368421 -0.333333      2.000000
 -0.368421  0.105263 -0.333333      2.000000
  0.315789  0.105263  0.333333      2.000000
  0.421053 -0.315789  0.333333      2.000000
  0.105263 -0.421053  0.333333      2.000000
 -0.315789 -0.105263  0.333333      2.000000
 -0.421053  0.315789  0.333333      2.000000
 -0.105263  0.421053  0.333333      2.000000
 -0.105263 -0.315789 -0.333333      2.000000
  0.315789 -0.421053 -0.333333      2.000000
  0.421053 -0.105263 -0.333333      2.000000
  0.105263  0.315789 -0.333333      2.000000
 -0.315789  0.421053 -0.333333      2.000000
 -0.421053  0.105263 -0.333333      2.000000
  0.368421  0.105263  0.333333      2.000000
  0.473684 -0.368421  0.333333      2.000000
  0.105263 -0.473684  0.333333      2.000000
 -0.368421 -0.105263  0.333333      2.000000
 -0.473684  0.368421  0.333333      2.000000
 -0.105263  0.473684  0.333333      2.000000
 -0.105263 -0.368421 -0.333333      2.000000
  0.368421 -0.473684 -0.333333      2.000000
  0.473684 -0.105263 -0.333333      2.000000
  0.105263  0.368421 -0.333333      2.000000
 -0.368421  0.473684 -0.333333      2.000000
 -0.473684  0.105263 -0.333333      2.000000
  0.421053  0.105263  0.333333      2.000000
 -0.473684 -0.421053  0.333333      2.000000
  0.105263  0.473684  0.333333      2.000000
 -0.421053 -0.105263  0.333333      2.000000
  0.473684  0.421053  0.333333      2.000000
 -0.105263 -0.473684  0.333333      2.000000
 -0.105263 -0.421053 -0.333333      2.000000
  0.421053  0.473684 -0.333333      2.000000
 -0.473684 -0.105263 -0.333333      2.000000
  0.105263  0.421053 -0.333333      2.000000
 -0.421053 -0.473684 -0.333333      2.000000
  0.473684  0.105263 -0.333333      2.000000
  0.157895  0.157895  0.333333      2.000000
  0.315789 -0.157895  0.333333      2.000000
  0.157895 -0.315789  0.333333      2.000000
 -0.157895 -0.157895  0.333333      2.000000
 -0.315789  0.157895  0.333333      2.000000
 -0.157895  0.315789  0.333333      2.000000
  0.210526  0.157895  0.333333      2.000000
  0.368421 -0.210526  0.333333      2.000000
  0.157895 -0.368421  0.333333      2.000000
 -0.210526 -0.157895  0.333333      2.000000
 -0.368421  0.210526  0.333333      2.000000
 -0.157895  0.368421  0.333333      2.000000
 -0.157895 -0.210526 -0.333333      2.000000
  0.210526 -0.368421 -0.333333      2.000000
  0.368421 -0.157895 -0.333333      2.000000
  0.157895  0.210526 -0.333333      2.000000
 -0.210526  0.368421 -0.333333      2.000000
 -0.368421  0.157895 -0.333333      2.000000
  0.263158  0.157895  0.333333      2.000000
  0.421053 -0.263158  0.333333      2.000000
  0.157895 -0.421053  0.333333      2.000000
 -0.263158 -0.157895  0.333333      2.000000
 -0.421053  0.263158  0.333333      2.000000
 -0.157895  0.421053  0.333333      2.000000
 -0.157895 -0.263158 -0.333333      2.000000
  0.263158 -0.421053 -0.333333      2.000000
  0.421053 -0.157895 -0.333333      2.000000
  0.157895  0.263158 -0.333333      2.000000
 -0.263158  0.421053 -0.333333      2.000000
 -0.421053  0.157895 -0.333333      2.000000
  0.315789  0.157895  0.333333      2.000000
  0.473684 -0.315789  0.333333      2.000000
  0.157895 -0.473684  0.333333      2.000000
 -0.315789 -0.157895  0.333333      2.000000
 -0.473684  0.315789  0.333333      2.000000
 -0.157895  0.473684  0.333333      2.000000
 -0.157895 -0.315789 -0.333333      2.000000
  0.315789 -0.473684 -0.333333      2.000000
  0.473684 -0.157895 -0.333333      2.000000
  0.157895  0.315789 -0.333333      2.000000
 -0.315789  0.473684 -0.333333      2.000000
 -0.473684  0.157895 -0.333333      2.000000
  0.368421  0.157895  0.333333      2.000000
 -0.473684 -0.368421  0.333333      2.000000
  0.157895  0.473684  0.333333      2.000000
 -0.368421 -0.157895  0.333333      2.000000
  0.473684  0.368421  0.333333      2.000000
 -0.157895 -0.473684  0.333333      2.000000
 -0.157895 -0.368421 -0.333333      2.000000
  0.368421  0.473684 -0.333333      2.000000
 -0.473684 -0.157895 -0.333333      2.000000
  0.157895  0.368421 -0.333333      2.000000
 -0.368421 -0.473684 -0.333333      2.000000
  0.473684  0.157895 -0.333333      2.000000
  0.421053  0.157895  0.333333      2.000000
 -0.421053 -0.421053  0.333333      2.000000
  0.157895  0.421053  0.333333      2.000000
 -0.421053 -0.157895  0.333333      2.000000
  0.421053  0.421053  0.333333      2.000000
 -0.157895 -0.421053  0.333333      2.000000
  0.210526  0.210526  0.333333      2.000000
  0.421053 -0.210526  0.333333      2.000000
  0.210526 -0.421053  0.333333      2.000000
 -0.210526 -0.210526  0.333333      2.000000
 -0.421053  0.210526  0.333333      2.000000
 -0.210526  0.421053  0.333333      2.000000
  0.263158  0.210526  0.333333      2.000000
  0.473684 -0.263158  0.333333      2.000000
  0.210526 -0.473684  0.333333      2.000000
 -0.263158 -0.210526  0.333333      2.000000
 -0.473684  0.263158  0.333333      2.000000
 -0.210526  0.473684  0.333333      2.000000
 -0.210526 -0.263158 -0.333333      2.000000
  0.263158 -0.473684 -0.333333      2.000000
  0.473684 -0.210526 -0.333333      2.000000
  0.210526  0.263158 -0.333333      2.000000
 -0.263158  0.473684 -0.333333      2.000000
 -0.473684  0.210526 -0.333333      2.000000
  0.315789  0.210526  0.333333      2.000000
 -0.473684 -0.315789  0.333333      2.000000
  0.210526  0.473684  0.333333      2.000000
 -0.315789 -0.210526  0.333333      2.000000
  0.473684  0.315789  0.333333      2.000000
 -0.210526 -0.473684  0.333333      2.000000
 -0.210526 -0.315789 -0.333333      2.000000
  0.315789  0.473684 -0.333333      2.000000
 -0.473684 -0.210526 -0.333333      2.000000
  0.210526  0.315789 -0.333333      2.000000
 -0.315789 -0.473684 -0.333333      2.000000
  0.473684  0.210526 -0.333333      2.000000
  0.368421  0.210526  0.333333      2.000000
 -0.421053 -0.368421  0.333333      2.000000
  0.210526  0.421053  0.333333      2.000000
 -0.368421 -0.210526  0.333333      2.000000
  0.421053  0.368421  0.333333      2.000000
 -0.210526 -0.421053  0.333333      2.000000
 -0.210526 -0.368421 -0.333333      2.000000
  0.368421  0.421053 -0.333333      2.000000
 -0.421053 -0.210526 -0.333333      2.000000
  0.210526  0.368421 -0.333333      2.000000
 -0.368421 -0.421053 -0.333333      2.000000
  0.421053  0.210526 -0.333333      2.000000
  0.263158  0.263158  0.333333      2.000000
 -0.473684 -0.263158  0.333333      2.000000
  0.263158  0.473684  0.333333      2.000000
 -0.263158 -0.263158  0.333333      2.000000
  0.473684  0.263158  0.333333      2.000000
 -0.263158 -0.473684  0.333333      2.000000
  0.315789  0.263158  0.333333      2.000000
 -0.421053 -0.315789  0.333333      2.000000
  0.263158  0.421053  0.333333      2.000000
 -0.315789 -0.263158  0.333333      2.000000
  0.421053  0.315789  0.333333      2.000000
 -0.263158 -0.421053  0.333333      2.000000
 -0.263158 -0.315789 -0.333333      2.000000
  0.315789  0.421053 -0.333333      2.000000
 -0.421053 -0.263158 -0.333333      2.000000
  0.263158  0.315789 -0.333333      2.000000
 -0.315789 -0.421053 -0.333333      2.000000
  0.421053  0.263158 -0.333333      2.000000
  0.368421  0.263158  0.333333      2.000000
 -0.368421 -0.368421  0.333333      2.000000
  0.263158  0.368421  0.333333      2.000000
 -0.368421 -0.263158  0.333333      2.000000
  0.368421  0.368421  0.333333      2.000000
 -0.263158 -0.368421  0.333333      2.000000
  0.315789  0.315789  0.333333      2.000000
 -0.368421 -0.315789  0.333333      2.000000
  0.315789  0.368421  0.333333      2.000000
 -0.315789 -0.315789  0.333333      2.000000
  0.368421  0.315789  0.333333      2.000000
 -0.315789 -0.368421  0.333333      2.000000
  0.000000  0.000000  0.500000      1.000000
  0.052632  0.000000  0.500000      2.000000
  0.052632 -0.052632  0.500000      2.000000
  0.000000 -0.052632  0.500000      2.000000
  0.105263  0.000000  0.500000      2.000000
  0.105263 -0.105263  0.500000      2.000000
  0.000000 -0.105263  0.500000      2.000000
  0.157895  0.000000  0.500000      2.000000
  0.157895 -0.157895  0.500000      2.000000
  0.000000 -0.157895  0.500000      2.000000
  0.210526  0.000000  0.500000      2.000000
  0.210526 -0.210526  0.500000      2.000000
  0.000000 -0.210526  0.500000      2.000000
  0.263158  0.000000  0.500000      2.000000
  0.263158 -0.263158  0.500000      2.000000
  0.000000 -0.263158  0.500000      2.000000
  0.315789  0.000000  0.500000      2.000000
  0.315789 -0.315789  0.500000      2.000000
 -0.000000 -0.315789  0.500000      2.000000
  0.368421  0.000000  0.500000      2.000000
  0.368421 -0.368421  0.500000      2.000000
  0.000000 -0.368421  0.500000      2.000000
  0.421053  0.000000  0.500000      2.000000
  0.421053 -0.421053  0.500000      2.000000
  0.000000 -0.421053  0.500000      2.000000
  0.473684  0.000000  0.500000      2.000000
  0.473684 -0.473684  0.500000      2.000000
  0.000000 -0.473684  0.500000      2.000000
  0.052632  0.052632  0.500000      2.000000
  0.105263 -0.052632  0.500000      2.000000
  0.052632 -0.105263  0.500000      2.000000
  0.105263  0.052632  0.500000      2.000000
  0.157895 -0.105263  0.500000      2.000000
  0.052632 -0.157895  0.500000      2.000000
 -0.052632 -0.105263  0.500000      2.000000
  0.105263 -0.157895  0.500000      2.000000
  0.157895 -0.052632  0.500000      2.000000
  0.157895  0.052632  0.500000      2.000000
  0.210526 -0.157895  0.500000      2.000000
  0.052632 -0.210526  0.500000      2.000000
 -0.052632 -0.157895  0.500000      2.000000
  0.157895 -0.210526  0.500000      2.000000
  0.210526 -0.052632  0.500000      2.000000
  0.210526  0.052632  0.500000      2.000000
  0.263158 -0.210526  0.500000      2.000000
  0.052632 -0.263158  0.500000      2.000000
 -0.052632 -0.210526  0.500000      2.000000
  0.210526 -0.263158  0.500000      2.000000
  0.263158 -0.052632  0.500000      2.000000
  0.263158  0.052632  0.500000      2.000000
  0.315789 -0.263158  0.500000      2.000000
  0.052632 -0.315789  0.500000      2.000000
 -0.052632 -0.263158  0.500000      2.000000
  0.263158 -0.315789  0.500000      2.000000
  0.315789 -0.052632  0.500000      2.000000
  0.315789  0.052632  0.500000      2.000000
  0.368421 -0.315789  0.500000      2.000000
  0.052632 -0.368421  0.500000      2.000000
 -0.052632 -0.315789  0.500000      2.000000
  0.315789 -0.368421  0.500000      2.000000
  0.368421 -0.052632  0.500000      2.000000
  0.368421  0.052632  0.500000      2.000000
  0.421053 -0.368421  0.500000      2.000000
  0.052632 -0.421053  0.500000      2.000000
 -0.052632 -0.368421  0.500000      2.000000
  0.368421 -0.421053  0.500000      2.000000
  0.421053 -0.052632  0.500000      2.000000
  0.421053  0.052632  0.500000      2.000000
  0.473684 -0.421053  0.500000      2.000000
  0.052632 -0.473684  0.500000      2.000000
 -0.052632 -0.421053  0.500000      2.000000
  0.421053 -0.473684  0.500000      2.000000
  0.473684 -0.052632  0.500000      2.000000
  0.473684  0.052632  0.500000      2.000000
 -0.473684 -0.473684  0.500000      2.000000
  0.052632  0.473684  0.500000      2.000000
  0.105263  0.105263  0.500000      2.000000
  0.210526 -0.105263  0.500000      2.000000
  0.105263 -0.210526  0.500000      2.000000
  0.157895  0.105263  0.500000      2.000000
  0.263158 -0.157895  0.500000      2.000000
  0.105263 -0.263158  0.500000      2.000000
 -0.105263 -0.157895  0.500000      2.000000
  0.157895 -0.263158  0.500000      2.000000
  0.263158 -0.105263  0.500000      2.000000
  0.210526  0.105263  0.500000      2.000000
  0.315789 -0.210526  0.500000      2.000000
  0.105263 -0.315789  0.500000      2.000000
 -0.105263 -0.210526  0.500000      2.000000
  0.210526 -0.315789  0.500000      2.000000
  0.315789 -0.105263  0.500000      2.000000
  0.263158  0.105263  0.500000      2.000000
  0.368421 -0.263158  0.500000      2.000000
  0.105263 -0.368421  0.500000      2.000000
 -0.105263 -0.263158  0.500000      2.000000
  0.263158 -0.368421  0.500000      2.000000
  0.368421 -0.105263  0.500000      2.000000
  0.315789  0.105263  0.500000      2.000000
  0.421053 -0.315789  0.500000      2.000000
  0.105263 -0.421053  0.500000      2.000000
 -0.105263 -0.315789  0.500000      2.000000
  0.315789 -0.421053  0.500000      2.000000
  0.421053 -0.105263  0.500000      2.000000
  0.368421  0.105263  0.500000      2.000000
  0.473684 -0.368421  0.500000      2.000000
  0.105263 -0.473684  0.500000      2.000000
 -0.105263 -0.368421  0.500000      2.000000
  0.368421 -0.473684  0.500000      2.000000
  0.473684 -0.105263  0.500000      2.000000
  0.421053  0.105263  0.500000      2.000000
 -0.473684 -0.421053  0.500000      2.000000
  0.105263  0.473684  0.500000      2.000000
 -0.105263 -0.421053  0.500000      2.000000
  0.421053  0.473684  0.500000      2.000000
 -0.473684 -0.105263  0.500000      2.000000
  0.157895  0.157895  0.500000      2.000000
  0.315789 -0.157895  0.500000      2.000000
  0.157895 -0.315789  0.500000      2.000000
  0.210526  0.157895  0.500000      2.000000
  0.368421 -0.210526  0.500000      2.000000
  0.157895 -0.368421  0.500000      2.000000
 -0.157895 -0.210526  0.500000      2.000000
  0.210526 -0.368421  0.500000      2.000000
  0.368421 -0.157895  0.500000      2.000000
  0.263158  0.157895  0.500000      2.000000
  0.421053 -0.263158  0.500000      2.000000
  0.157895 -0.421053  0.500000      2.000000
 -0.157895 -0.263158  0.500000      2.000000
  0.263158 -0.421053  0.500000      2.000000
  0.421053 -0.157895  0.500000      2.000000
  0.315789  0.157895  0.500000      2.000000
  0.473684 -0.315789  0.500000      2.000000
  0.157895 -0.473684  0.500000      2.000000
 -0.157895 -0.315789  0.500000      2.000000
  0.315789 -0.473684  0.500000      2.000000
  0.473684 -0.157895  0.500000      2.000000
  0.368421  0.157895  0.500000      2.000000
 -0.473684 -0.368421  0.500000      2.000000
  0.157895  0.473684  0.500000      2.000000
 -0.157895 -0.368421  0.500000      2.000000
  0.368421  0.473684  0.500000      2.000000
 -0.473684 -0.157895  0.500000      2.000000
  0.421053  0.157895  0.500000      2.000000
 -0.421053 -0.421053  0.500000      2.000000
  0.157895  0.421053  0.500000      2.000000
  0.210526  0.210526  0.500000      2.000000
  0.421053 -0.210526  0.500000      2.000000
  0.210526 -0.421053  0.500000      2.000000
  0.263158  0.210526  0.500000      2.000000
  0.473684 -0.263158  0.500000      2.000000
  0.210526 -0.473684  0.500000      2.000000
 -0.210526 -0.263158  0.500000      2.000000
  0.263158 -0.473684  0.500000      2.000000
  0.473684 -0.210526  0.500000      2.000000
  0.315789  0.210526  0.500000      2.000000
 -0.473684 -0.315789  0.500000      2.000000
  0.210526  0.473684  0.500000      2.000000
 -0.210526 -0.315789  0.500000      2.000000
  0.315789  0.473684  0.500000      2.000000
 -0.473684 -0.210526  0.500000      2.000000
  0.368421  0.210526  0.500000      2.000000
 -0.421053 -0.368421  0.500000      2.000000
  0.210526  0.421053  0.500000      2.000000
 -0.210526 -0.368421  0.500000      2.000000
  0.368421  0.421053  0.500000      2.000000
 -0.421053 -0.210526  0.500000      2.000000
  0.263158  0.263158  0.500000      2.000000
 -0.473684 -0.263158  0.500000      2.000000
  0.263158  0.473684  0.500000      2.000000
  0.315789  0.263158  0.500000      2.000000
 -0.421053 -0.315789  0.500000      2.000000
  0.263158  0.421053  0.500000      2.000000
 -0.263158 -0.315789  0.500000      2.000000
  0.315789  0.421053  0.500000      2.000000
 -0.421053 -0.263158  0.500000      2.000000
  0.368421  0.263158  0.500000      2.000000
 -0.368421 -0.368421  0.500000      2.000000
  0.263158  0.368421  0.500000      2.000000
  0.315789  0.315789  0.500000      2.000000
 -0.368421 -0.315789  0.500000      2.000000
  0.315789  0.368421  0.500000      2.000000
 
 Following cartesian coordinates:
            Coordinates               Weight
  0.000000  0.000000  0.000000      1.000000
  0.017236  0.009951  0.000000      2.000000
  0.017236 -0.009951  0.000000      2.000000
  0.000000 -0.019902  0.000000      2.000000
  0.034472  0.019902  0.000000      2.000000
  0.034472 -0.019902  0.000000      2.000000
  0.000000 -0.039805  0.000000      2.000000
  0.051708  0.029854  0.000000      2.000000
  0.051708 -0.029854  0.000000      2.000000
  0.000000 -0.059707  0.000000      2.000000
  0.068944  0.039805  0.000000      2.000000
  0.068944 -0.039805  0.000000      2.000000
  0.000000 -0.079609  0.000000      2.000000
  0.086180  0.049756  0.000000      2.000000
  0.086180 -0.049756  0.000000      2.000000
  0.000000 -0.099512  0.000000      2.000000
  0.103416  0.059707  0.000000      2.000000
  0.103416 -0.059707  0.000000      2.000000
  0.000000 -0.119414  0.000000      2.000000
  0.120652  0.069658  0.000000      2.000000
  0.120652 -0.069658  0.000000      2.000000
  0.000000 -0.139316  0.000000      2.000000
  0.137888  0.079609  0.000000      2.000000
  0.137888 -0.079609  0.000000      2.000000
  0.000000 -0.159219  0.000000      2.000000
  0.155124  0.089561  0.000000      2.000000
  0.155124 -0.089561  0.000000      2.000000
  0.000000 -0.179121  0.000000      2.000000
  0.017236  0.029854  0.000000      2.000000
  0.034472  0.000000  0.000000      2.000000
  0.017236 -0.029854  0.000000      2.000000
  0.034472  0.039805  0.000000      2.000000
  0.051708 -0.009951  0.000000      2.000000
  0.017236 -0.049756  0.000000      2.000000
 -0.017236 -0.049756  0.000000      2.000000
  0.034472 -0.039805  0.000000      2.000000
  0.051708  0.009951  0.000000      2.000000
  0.051708  0.049756  0.000000      2.000000
  0.068944 -0.019902  0.000000      2.000000
  0.017236 -0.069658  0.000000      2.000000
 -0.017236 -0.069658  0.000000      2.000000
  0.051708 -0.049756  0.000000      2.000000
  0.068944  0.019902  0.000000      2.000000
  0.068944  0.059707  0.000000      2.000000
  0.086180 -0.029854  0.000000      2.000000
  0.017236 -0.089561  0.000000      2.000000
 -0.017236 -0.089561  0.000000      2.000000
  0.068944 -0.059707  0.000000      2.000000
  0.086180  0.029854  0.000000      2.000000
  0.086180  0.069658  0.000000      2.000000
  0.103416 -0.039805  0.000000      2.000000
  0.017236 -0.109463  0.000000      2.000000
 -0.017236 -0.109463  0.000000      2.000000
  0.086180 -0.069658  0.000000      2.000000
  0.103416  0.039805  0.000000      2.000000
  0.103416  0.079609  0.000000      2.000000
  0.120652 -0.049756  0.000000      2.000000
  0.017236 -0.129365  0.000000      2.000000
 -0.017236 -0.129365  0.000000      2.000000
  0.103416 -0.079609  0.000000      2.000000
  0.120652  0.049756  0.000000      2.000000
  0.120652  0.089561  0.000000      2.000000
  0.137888 -0.059707  0.000000      2.000000
  0.017236 -0.149268  0.000000      2.000000
 -0.017236 -0.149268  0.000000      2.000000
  0.120652 -0.089561  0.000000      2.000000
  0.137888  0.059707  0.000000      2.000000
  0.137888  0.099512  0.000000      2.000000
  0.155124 -0.069658  0.000000      2.000000
  0.017236 -0.169170  0.000000      2.000000
 -0.017236 -0.169170  0.000000      2.000000
  0.137888 -0.099512  0.000000      2.000000
  0.155124  0.069658  0.000000      2.000000
  0.155124  0.109463  0.000000      2.000000
 -0.155124 -0.268682  0.000000      2.000000
  0.017236  0.189072  0.000000      2.000000
  0.034472  0.059707  0.000000      2.000000
  0.068944  0.000000  0.000000      2.000000
  0.034472 -0.059707  0.000000      2.000000
  0.051708  0.069658  0.000000      2.000000
  0.086180 -0.009951  0.000000      2.000000
  0.034472 -0.079609  0.000000      2.000000
 -0.034472 -0.079609  0.000000      2.000000
  0.051708 -0.069658  0.000000      2.000000
  0.086180  0.009951  0.000000      2.000000
  0.068944  0.079609  0.000000      2.000000
  0.103416 -0.019902  0.000000      2.000000
  0.034472 -0.099512  0.000000      2.000000
 -0.034472 -0.099512  0.000000      2.000000
  0.068944 -0.079609  0.000000      2.000000
  0.103416  0.019902  0.000000      2.000000
  0.086180  0.089561  0.000000      2.000000
  0.120652 -0.029854  0.000000      2.000000
  0.034472 -0.119414  0.000000      2.000000
 -0.034472 -0.119414  0.000000      2.000000
  0.086180 -0.089561  0.000000      2.000000
  0.120652  0.029854  0.000000      2.000000
  0.103416  0.099512  0.000000      2.000000
  0.137888 -0.039805  0.000000      2.000000
  0.034472 -0.139316  0.000000      2.000000
 -0.034472 -0.139316  0.000000      2.000000
  0.103416 -0.099512  0.000000      2.000000
  0.137888  0.039805  0.000000      2.000000
  0.120652  0.109463  0.000000      2.000000
  0.155124 -0.049756  0.000000      2.000000
  0.034472 -0.159219  0.000000      2.000000
 -0.034472 -0.159219  0.000000      2.000000
  0.120652 -0.109463  0.000000      2.000000
  0.155124  0.049756  0.000000      2.000000
  0.137888  0.119414  0.000000      2.000000
 -0.155124 -0.248779  0.000000      2.000000
  0.034472  0.199024  0.000000      2.000000
 -0.034472 -0.179121  0.000000      2.000000
  0.137888  0.258731  0.000000      2.000000
 -0.155124 -0.129365  0.000000      2.000000
  0.051708  0.089561  0.000000      2.000000
  0.103416  0.000000  0.000000      2.000000
  0.051708 -0.089561  0.000000      2.000000
  0.068944  0.099512  0.000000      2.000000
  0.120652 -0.009951  0.000000      2.000000
  0.051708 -0.109463  0.000000      2.000000
 -0.051708 -0.109463  0.000000      2.000000
  0.068944 -0.099512  0.000000      2.000000
  0.120652  0.009951  0.000000      2.000000
  0.086180  0.109463  0.000000      2.000000
  0.137888 -0.019902  0.000000      2.000000
  0.051708 -0.129365  0.000000      2.000000
 -0.051708 -0.129365  0.000000      2.000000
  0.086180 -0.109463  0.000000      2.000000
  0.137888  0.019902  0.000000      2.000000
  0.103416  0.119414  0.000000      2.000000
  0.155124 -0.029854  0.000000      2.000000
  0.051708 -0.149268  0.000000      2.000000
 -0.051708 -0.149268  0.000000      2.000000
  0.103416 -0.119414  0.000000      2.000000
  0.155124  0.029854  0.000000      2.000000
  0.120652  0.129365  0.000000      2.000000
 -0.155124 -0.228877  0.000000      2.000000
  0.051708  0.208975  0.000000      2.000000
 -0.051708 -0.169170  0.000000      2.000000
  0.120652  0.248779  0.000000      2.000000
 -0.155124 -0.149268  0.000000      2.000000
  0.137888  0.139316  0.000000      2.000000
 -0.137888 -0.238828  0.000000      2.000000
  0.051708  0.189072  0.000000      2.000000
  0.068944  0.119414  0.000000      2.000000
  0.137888  0.000000  0.000000      2.000000
  0.068944 -0.119414  0.000000      2.000000
  0.086180  0.129365  0.000000      2.000000
  0.155124 -0.009951  0.000000      2.000000
  0.068944 -0.139316  0.000000      2.000000
 -0.068944 -0.139316  0.000000      2.000000
  0.086180 -0.129365  0.000000      2.000000
  0.155124  0.009951  0.000000      2.000000
  0.103416  0.139316  0.000000      2.000000
 -0.155124 -0.208975  0.000000      2.000000
  0.068944  0.218926  0.000000      2.000000
 -0.068944 -0.159219  0.000000      2.000000
  0.103416  0.238828  0.000000      2.000000
 -0.155124 -0.169170  0.000000      2.000000
  0.120652  0.149268  0.000000      2.000000
 -0.137888 -0.218926  0.000000      2.000000
  0.068944  0.199024  0.000000      2.000000
 -0.068944 -0.179121  0.000000      2.000000
  0.120652  0.228877  0.000000      2.000000
 -0.137888 -0.159219  0.000000      2.000000
  0.086180  0.149268  0.000000      2.000000
 -0.155124 -0.189072  0.000000      2.000000
  0.086180  0.228877  0.000000      2.000000
  0.103416  0.159219  0.000000      2.000000
 -0.137888 -0.199024  0.000000      2.000000
  0.086180  0.208975  0.000000      2.000000
 -0.086180 -0.169170  0.000000      2.000000
  0.103416  0.218926  0.000000      2.000000
 -0.137888 -0.179121  0.000000      2.000000
  0.120652  0.169170  0.000000      2.000000
 -0.120652 -0.208975  0.000000      2.000000
  0.086180  0.189072  0.000000      2.000000
  0.103416  0.179121  0.000000      2.000000
 -0.120652 -0.189072  0.000000      2.000000
  0.103416  0.199024  0.000000      2.000000
  0.000000  0.000000  0.018147      2.000000
  0.017236  0.009951  0.018147      2.000000
  0.017236 -0.009951  0.018147      2.000000
  0.000000 -0.019902  0.018147      2.000000
 -0.017236 -0.009951  0.018147      2.000000
 -0.017236  0.009951  0.018147      2.000000
 -0.000000  0.019902  0.018147      2.000000
  0.034472  0.019902  0.018147      2.000000
  0.034472 -0.019902  0.018147      2.000000
  0.000000 -0.039805  0.018147      2.000000
 -0.034472 -0.019902  0.018147      2.000000
 -0.034472  0.019902  0.018147      2.000000
 -0.000000  0.039805  0.018147      2.000000
  0.051708  0.029854  0.018147      2.000000
  0.051708 -0.029854  0.018147      2.000000
  0.000000 -0.059707  0.018147      2.000000
 -0.051708 -0.029854  0.018147      2.000000
 -0.051708  0.029854  0.018147      2.000000
 -0.000000  0.059707  0.018147      2.000000
  0.068944  0.039805  0.018147      2.000000
  0.068944 -0.039805  0.018147      2.000000
  0.000000 -0.079609  0.018147      2.000000
 -0.068944 -0.039805  0.018147      2.000000
 -0.068944  0.039805  0.018147      2.000000
 -0.000000  0.079609  0.018147      2.000000
  0.086180  0.049756  0.018147      2.000000
  0.086180 -0.049756  0.018147      2.000000
  0.000000 -0.099512  0.018147      2.000000
 -0.086180 -0.049756  0.018147      2.000000
 -0.086180  0.049756  0.018147      2.000000
 -0.000000  0.099512  0.018147      2.000000
  0.103416  0.059707  0.018147      2.000000
  0.103416 -0.059707  0.018147      2.000000
  0.000000 -0.119414  0.018147      2.000000
 -0.103416 -0.059707  0.018147      2.000000
 -0.103416  0.059707  0.018147      2.000000
 -0.000000  0.119414  0.018147      2.000000
  0.120652  0.069658  0.018147      2.000000
  0.120652 -0.069658  0.018147      2.000000
  0.000000 -0.139316  0.018147      2.000000
 -0.120652 -0.069658  0.018147      2.000000
 -0.120652  0.069658  0.018147      2.000000
 -0.000000  0.139316  0.018147      2.000000
  0.137888  0.079609  0.018147      2.000000
  0.137888 -0.079609  0.018147      2.000000
  0.000000 -0.159219  0.018147      2.000000
 -0.137888 -0.079609  0.018147      2.000000
 -0.137888  0.079609  0.018147      2.000000
 -0.000000  0.159219  0.018147      2.000000
  0.155124  0.089561  0.018147      2.000000
  0.155124 -0.089561  0.018147      2.000000
  0.000000 -0.179121  0.018147      2.000000
 -0.155124 -0.089561  0.018147      2.000000
 -0.155124  0.089561  0.018147      2.000000
 -0.000000  0.179121  0.018147      2.000000
  0.017236  0.029854  0.018147      2.000000
  0.034472  0.000000  0.018147      2.000000
  0.017236 -0.029854  0.018147      2.000000
 -0.017236 -0.029854  0.018147      2.000000
 -0.034472 -0.000000  0.018147      2.000000
 -0.017236  0.029854  0.018147      2.000000
  0.034472  0.039805  0.018147      2.000000
  0.051708 -0.009951  0.018147      2.000000
  0.017236 -0.049756  0.018147      2.000000
 -0.034472 -0.039805  0.018147      2.000000
 -0.051708  0.009951  0.018147      2.000000
 -0.017236  0.049756  0.018147      2.000000
 -0.017236 -0.049756 -0.018147      2.000000
  0.034472 -0.039805 -0.018147      2.000000
  0.051708  0.009951 -0.018147      2.000000
  0.017236  0.049756 -0.018147      2.000000
 -0.034472  0.039805 -0.018147      2.000000
 -0.051708 -0.009951 -0.018147      2.000000
  0.051708  0.049756  0.018147      2.000000
  0.068944 -0.019902  0.018147      2.000000
  0.017236 -0.069658  0.018147      2.000000
 -0.051708 -0.049756  0.018147      2.000000
 -0.068944  0.019902  0.018147      2.000000
 -0.017236  0.069658  0.018147      2.000000
 -0.017236 -0.069658 -0.018147      2.000000
  0.051708 -0.049756 -0.018147      2.000000
  0.068944  0.019902 -0.018147      2.000000
  0.017236  0.069658 -0.018147      2.000000
 -0.051708  0.049756 -0.018147      2.000000
 -0.068944 -0.019902 -0.018147      2.000000
  0.068944  0.059707  0.018147      2.000000
  0.086180 -0.029854  0.018147      2.000000
  0.017236 -0.089561  0.018147      2.000000
 -0.068944 -0.059707  0.018147      2.000000
 -0.086180  0.029854  0.018147      2.000000
 -0.017236  0.089561  0.018147      2.000000
 -0.017236 -0.089561 -0.018147      2.000000
  0.068944 -0.059707 -0.018147      2.000000
  0.086180  0.029854 -0.018147      2.000000
  0.017236  0.089561 -0.018147      2.000000
 -0.068944  0.059707 -0.018147      2.000000
 -0.086180 -0.029854 -0.018147      2.000000
  0.086180  0.069658  0.018147      2.000000
  0.103416 -0.039805  0.018147      2.000000
  0.017236 -0.109463  0.018147      2.000000
 -0.086180 -0.069658  0.018147      2.000000
 -0.103416  0.039805  0.018147      2.000000
 -0.017236  0.109463  0.018147      2.000000
 -0.017236 -0.109463 -0.018147      2.000000
  0.086180 -0.069658 -0.018147      2.000000
  0.103416  0.039805 -0.018147      2.000000
  0.017236  0.109463 -0.018147      2.000000
 -0.086180  0.069658 -0.018147      2.000000
 -0.103416 -0.039805 -0.018147      2.000000
  0.103416  0.079609  0.018147      2.000000
[...]
     89      49.7489      0.00000
     90      49.7489      0.00000
     91      50.3754      0.00000
     92      50.3754      0.00000
     93      50.8728      0.00000
     94      50.8728      0.00000
     95      51.7166      0.00000
     96      51.7171      0.00000

 k-point  1083 :      -0.3684   -0.3158    0.5000
  band No.  band energies     occupation 
      1     -13.2340      2.00000
      2     -13.2339      2.00000
      3     -11.5441      2.00000
      4     -11.5440      2.00000
      5      -2.3419      2.00000
      6      -2.3418      2.00000
      7      -1.8247      2.00000
      8      -1.8247      2.00000
      9      -1.3709      2.00000
     10      -1.3709      2.00000
     11      -0.7819      2.00000
     12      -0.7818      2.00000
     13       1.1778      2.00000
     14       1.1779      2.00000
     15       1.8267      2.00000
     16       1.8268      2.00000
     17       4.5705      2.00000
     18       4.5706      2.00000
     19       4.6526      2.00000
     20       4.6527      2.00000
     21       4.9696      2.00000
     22       4.9696      2.00000
     23       5.5505      2.00000
     24       5.5506      2.00000
     25       6.6614      0.00000
     26       6.6614      0.00000
     27       9.3251      0.00000
     28       9.3252      0.00000
     29      10.5110      0.00000
     30      10.5111      0.00000
     31      15.5294      0.00000
     32      15.5295      0.00000
     33      15.9322      0.00000
     34      15.9323      0.00000
     35      17.0089      0.00000
     36      17.0089      0.00000
     37      18.5239      0.00000
     38      18.5240      0.00000
     39      19.7905      0.00000
     40      19.7905      0.00000
     41      22.3270      0.00000
     42      22.3270      0.00000
     43      23.2061      0.00000
     44      23.2062      0.00000
     45      23.5978      0.00000
     46      23.5978      0.00000
     47      25.6305      0.00000
     48      25.6305      0.00000
     49      26.4376      0.00000
     50      26.4376      0.00000
     51      29.0744      0.00000
     52      29.0744      0.00000
     53      31.7592      0.00000
     54      31.7592      0.00000
     55      33.4975      0.00000
     56      33.4975      0.00000
     57      34.4207      0.00000
     58      34.4207      0.00000
     59      34.5824      0.00000
     60      34.5824      0.00000
     61      35.3139      0.00000
     62      35.3140      0.00000
     63      35.8466      0.00000
     64      35.8466      0.00000
     65      39.1973      0.00000
     66      39.1974      0.00000
     67      40.1320      0.00000
     68      40.1320      0.00000
     69      40.6212      0.00000
     70      40.6213      0.00000
     71      42.5306      0.00000
     72      42.5306      0.00000
     73      42.7395      0.00000
     74      42.7395      0.00000
     75      43.5579      0.00000
     76      43.5579      0.00000
     77      45.3671      0.00000
     78      45.3671      0.00000
     79      46.3879      0.00000
     80      46.3879      0.00000
     81      47.1094      0.00000
     82      47.1094      0.00000
     83      47.7734      0.00000
     84      47.7734      0.00000
     85      48.7164      0.00000
     86      48.7164      0.00000
     87      49.3382      0.00000
     88      49.3382      0.00000
     89      49.7489      0.00000
     90      49.7489      0.00000
     91      50.3754      0.00000
     92      50.3754      0.00000
     93      50.8728      0.00000
     94      50.8728      0.00000
     95      51.7166      0.00000
     96      51.7168      0.00000

 k-point  1084 :       0.3158    0.3684    0.5000
  band No.  band energies     occupation 
      1     -13.2340      2.00000
      2     -13.2339      2.00000
      3     -11.5441      2.00000
      4     -11.5440      2.00000
      5      -2.3419      2.00000
      6      -2.3418      2.00000
      7      -1.8247      2.00000
      8      -1.8247      2.00000
      9      -1.3709      2.00000
     10      -1.3709      2.00000
     11      -0.7819      2.00000
     12      -0.7818      2.00000
     13       1.1778      2.00000
     14       1.1779      2.00000
     15       1.8267      2.00000
     16       1.8268      2.00000
     17       4.5705      2.00000
     18       4.5706      2.00000
     19       4.6526      2.00000
     20       4.6527      2.00000
     21       4.9696      2.00000
     22       4.9696      2.00000
     23       5.5505      2.00000
     24       5.5506      2.00000
     25       6.6614      0.00000
     26       6.6614      0.00000
     27       9.3251      0.00000
     28       9.3252      0.00000
     29      10.5110      0.00000
     30      10.5111      0.00000
     31      15.5294      0.00000
     32      15.5295      0.00000
     33      15.9322      0.00000
     34      15.9323      0.00000
     35      17.0089      0.00000
     36      17.0089      0.00000
     37      18.5239      0.00000
     38      18.5240      0.00000
     39      19.7905      0.00000
     40      19.7905      0.00000
     41      22.3270      0.00000
     42      22.3270      0.00000
     43      23.2061      0.00000
     44      23.2062      0.00000
     45      23.5978      0.00000
     46      23.5978      0.00000
     47      25.6305      0.00000
     48      25.6305      0.00000
     49      26.4376      0.00000
     50      26.4376      0.00000
     51      29.0744      0.00000
     52      29.0744      0.00000
     53      31.7592      0.00000
     54      31.7592      0.00000
     55      33.4975      0.00000
     56      33.4975      0.00000
     57      34.4207      0.00000
     58      34.4207      0.00000
     59      34.5824      0.00000
     60      34.5824      0.00000
     61      35.3139      0.00000
     62      35.3140      0.00000
     63      35.8466      0.00000
     64      35.8466      0.00000
     65      39.1973      0.00000
     66      39.1974      0.00000
     67      40.1320      0.00000
     68      40.1320      0.00000
     69      40.6212      0.00000
     70      40.6213      0.00000
     71      42.5306      0.00000
     72      42.5306      0.00000
     73      42.7395      0.00000
     74      42.7395      0.00000
     75      43.5579      0.00000
     76      43.5579      0.00000
     77      45.3671      0.00000
     78      45.3671      0.00000
     79      46.3879      0.00000
     80      46.3879      0.00000
     81      47.1094      0.00000
     82      47.1094      0.00000
     83      47.7734      0.00000
     84      47.7734      0.00000
     85      48.7164      0.00000
     86      48.7164      0.00000
     87      49.3382      0.00000
     88      49.3382      0.00000
     89      49.7489      0.00000
     90      49.7489      0.00000
     91      50.3754      0.00000
     92      50.3754      0.00000
     93      50.8728      0.00000
     94      50.8728      0.00000
     95      51.7167      0.00000
     96      51.7168      0.00000


--------------------------------------------------------------------------------------------------------


 soft charge-density along one line, spin component           1
         0         1         2         3         4         5         6         7         8         9
 total charge-density along one line
 
 pseudopotential strength for first ion, spin component:           1
 -2.680  -0.000   0.000   0.073   0.000  -3.272  -0.000   0.000
 -0.000  -2.766   0.000  -0.000   0.073  -0.000  -3.354   0.000
  0.000   0.000  -2.657  -0.000  -0.000   0.000   0.000  -3.251
  0.073  -0.000  -0.000  -2.766  -0.000   0.069  -0.000  -0.000
  0.000   0.073  -0.000  -0.000  -2.679   0.000   0.069  -0.000
 -3.272  -0.000   0.000   0.069   0.000  -3.796  -0.000   0.000
 -0.000  -3.354   0.000  -0.000   0.069  -0.000  -3.875   0.000
  0.000   0.000  -3.251  -0.000  -0.000   0.000   0.000  -3.777
  0.069  -0.000  -0.000  -3.354  -0.000   0.066  -0.000  -0.000
  0.000   0.069  -0.000  -0.000  -3.272   0.000   0.066  -0.000
  0.000  -0.000   0.003   0.000  -0.000   0.000  -0.000   0.002
  0.000  -0.000   0.004   0.000  -0.000   0.000  -0.000   0.004
  0.000   0.000   0.000  -0.000  -0.000   0.000   0.000   0.000
 -0.000  -0.000  -0.000   0.000   0.000  -0.000  -0.000  -0.000
 -0.000  -0.000  -0.000   0.000   0.000  -0.000  -0.000  -0.000
  0.000   0.000   0.000  -0.000  -0.000   0.000   0.000   0.000
 -0.000  -0.000  -0.000   0.000   0.000  -0.000  -0.000  -0.000
 -0.000  -0.000  -0.000   0.000   0.000  -0.000  -0.000  -0.000
 total augmentation occupancy for first ion, spin component:           1
  5.307  -0.000  -0.000  -0.991   0.000  -3.348   0.000   0.000   1.631  -0.000   0.000   0.000   0.000  -0.000  -0.000   0.000
 -0.000   4.436  -0.000  -0.000  -0.991   0.000  -3.096   0.000   0.000   1.639   0.000   0.000   0.000  -0.000  -0.000  -0.000
 -0.000  -0.000   4.009   0.000   0.000   0.000   0.000  -1.566  -0.000  -0.000   0.361  -0.107   0.000   0.000  -0.000  -0.000
 -0.991  -0.000   0.000   4.436  -0.000   1.639   0.000  -0.000  -3.096   0.000  -0.000  -0.000  -0.000   0.000   0.000  -0.000
  0.000  -0.991   0.000  -0.000   5.307  -0.000   1.631  -0.000   0.000  -3.348  -0.000  -0.000  -0.000   0.000   0.000   0.000
 -3.348   0.000   0.000   1.639  -0.000   3.183  -0.000   0.000  -2.009   0.000  -0.000  -0.000  -0.000   0.000   0.000  -0.000
  0.000  -3.096   0.000   0.000   1.631  -0.000   3.335  -0.000  -0.000  -2.009  -0.000  -0.000  -0.000   0.000   0.000   0.000
  0.000   0.000  -1.566  -0.000  -0.000   0.000  -0.000   1.129   0.000  -0.000  -0.346   0.118  -0.000  -0.000   0.000   0.000
  1.631   0.000  -0.000  -3.096   0.000  -2.009  -0.000   0.000   3.336  -0.000   0.000   0.000   0.000  -0.000  -0.000   0.000
 -0.000   1.639  -0.000   0.000  -3.348   0.000  -2.009  -0.000  -0.000   3.183   0.000   0.000   0.000  -0.000  -0.000  -0.000
  0.000   0.000   0.361  -0.000  -0.000  -0.000  -0.000  -0.346   0.000   0.000   2.312  -0.502   0.000   0.000  -0.000  -0.000
  0.000   0.000  -0.107  -0.000  -0.000  -0.000  -0.000   0.118   0.000   0.000  -0.502   0.124  -0.000   0.000  -0.000   0.000
  0.000   0.000   0.000  -0.000  -0.000  -0.000  -0.000  -0.000   0.000   0.000   0.000  -0.000   0.375  -0.000  -0.000  -0.067
 -0.000  -0.000   0.000   0.000   0.000   0.000   0.000  -0.000  -0.000  -0.000   0.000   0.000  -0.000   0.315   0.000  -0.000
 -0.000  -0.000  -0.000   0.000   0.000   0.000   0.000   0.000  -0.000  -0.000  -0.000  -0.000  -0.000   0.000   0.375   0.000
  0.000  -0.000  -0.000  -0.000   0.000  -0.000   0.000   0.000   0.000  -0.000  -0.000   0.000  -0.067  -0.000   0.000   0.014
  0.000   0.000   0.000  -0.000   0.000  -0.000  -0.000   0.000   0.000  -0.000   0.000  -0.000  -0.000  -0.051   0.000   0.000
  0.000  -0.000   0.000  -0.000   0.000  -0.000   0.000  -0.000   0.000  -0.000  -0.000  -0.000   0.000   0.000  -0.067  -0.000


------------------------ aborting loop because EDIFF is reached ----------------------------------------


 


 total charge     
 
# of ion       s       p       d       tot
------------------------------------------
    1        0.363   0.493   8.356   9.212
    2        0.363   0.493   8.358   9.214
    3        1.258   2.555   0.000   3.814
    4        1.258   2.555   0.000   3.814
    5        1.258   2.556   0.000   3.814
    6        1.258   2.555   0.000   3.814
    7        0.925   1.793   0.000   2.718
    8        0.925   1.793   0.000   2.718
--------------------------------------------------
tot          7.609  14.794  16.714  39.117
 
    CHARGE:  cpu time    0.7551: real time    0.7572
    FORLOC:  cpu time    0.0007: real time    0.0007
    FORNL :  cpu time    6.8386: real time    6.8617
    STRESS:  cpu time    9.8836: real time    9.9161
    FORCOR:  cpu time    0.0075: real time    0.0075
    FORHAR:  cpu time    0.0021: real time    0.0021
    MIXING:  cpu time    0.0009: real time    0.0009
    OFIELD:  cpu time    0.0000: real time    0.0000

  FORCE on cell =-STRESS in cart. coord.  units (eV):
  Direction    XX          YY          ZZ          XY          YZ          ZX
  --------------------------------------------------------------------------------------
  Alpha Z   148.38071   148.38071   148.38071
  Ewald   -1003.78963 -1003.78953  -731.99992    -0.00002    -0.00000     0.00000
  Hartree   384.38559   384.38560   206.59325    -0.00004    -0.00008     0.00014
  E(xc)    -226.68438  -226.68438  -223.92207    -0.00000    -0.00000     0.00001
  Local    -287.51933  -287.51949  -284.18701     0.00000     0.00017    -0.00029
  n-local   -72.86024   -72.86040   -76.64153    -0.00015     0.00038    -0.00066
  augment   357.89438   357.89428   356.71380    -0.00009     0.00016    -0.00028
  Kinetic   701.67662   701.67689   606.58951     0.00024    -0.00049     0.00084
  Fock        0.00000     0.00000     0.00000     0.00000     0.00000     0.00000
  -------------------------------------------------------------------------------------
  Total       1.48373     1.48368     1.52675    -0.00005     0.00013    -0.00023
  in kB      32.05211    32.05093    32.98140    -0.00101     0.00291    -0.00505
  external pressure =       32.36 kB  Pullay stress =        0.00 kB


 VOLUME and BASIS-vectors are now :
 -----------------------------------------------------------------------------
  energy-cutoff  :      800.00
  volume of cell :       74.17
      direct lattice vectors                 reciprocal lattice vectors
     3.053593955  0.000000000  0.000000000     0.327482964  0.189072378  0.000000000
    -1.526796977  2.644489938  0.000000000    -0.000000000  0.378144755  0.000000000
     0.000000000  0.000000000  9.184506200     0.000000000  0.000000000  0.108879016

  length of vectors
     3.053593955  3.053593955  9.184506200     0.378144755  0.378144755  0.108879016


 FORCES acting on ions
    electron-ion (+dipol)            ewald-force                    non-local-force                 convergence-correction
 -----------------------------------------------------------------------------------------------
   -.240E-04 0.208E-04 0.146E-01   0.519E-05 -.899E-05 0.584E-04   -.375E-06 -.108E-05 -.610E-03   0.749E-05 -.437E-05 -.148E-01
   -.228E-04 0.195E-04 -.146E-01   0.519E-05 -.899E-05 -.584E-04   -.189E-05 0.536E-06 0.637E-03   0.746E-05 -.436E-05 0.148E-01
   0.116E-02 -.665E-03 0.481E+02   -.537E-05 -.357E-05 -.218E+02   -.929E-03 0.537E-03 -.263E+02   -.220E-04 0.129E-04 0.513E-01
   -.120E-02 0.684E-03 -.481E+02   0.475E-06 0.120E-04 0.218E+02   0.973E-03 -.563E-03 0.263E+02   0.324E-04 -.188E-04 -.601E-01
   0.971E-03 -.572E-03 0.482E+02   0.475E-06 0.120E-04 -.218E+02   -.789E-03 0.455E-03 -.263E+02   -.243E-04 0.142E-04 -.509E-01
   -.101E-02 0.590E-03 -.482E+02   -.537E-05 -.357E-05 0.218E+02   0.833E-03 -.481E-03 0.263E+02   0.346E-04 -.201E-04 0.597E-01
   0.246E-04 -.134E-04 -.675E-01   -.638E-06 -.405E-06 -.627E-14   -.352E-04 0.202E-04 -.171E-02   0.331E-06 -.181E-06 0.608E-01
   -.173E-04 0.846E-05 0.675E-01   0.473E-07 0.143E-05 -.364E-13   0.326E-04 -.187E-04 0.170E-02   0.105E-05 -.599E-06 -.608E-01
 -----------------------------------------------------------------------------------------------
   -.121E-03 0.720E-04 -.211E-04   0.160E-13 -.280E-13 0.142E-13   0.839E-04 -.514E-04 0.203E-04   0.371E-04 -.214E-04 0.195E-05
 
 
 POSITION                                       TOTAL-FORCE (eV/Angst)
 -----------------------------------------------------------------------------------
      0.00000      0.00000      4.59225        -0.000012      0.000006     -0.000757
      0.00000      0.00000      0.00000        -0.000012      0.000007      0.000762
      1.52680      0.88150      3.53698         0.000206     -0.000119      0.031219
     -0.00000      1.76299      5.64752        -0.000197      0.000114     -0.029041
     -0.00000      1.76299      8.12924         0.000158     -0.000091      0.016236
      1.52680      0.88150      1.05527        -0.000148      0.000085     -0.018413
      1.52680      0.88150      2.29613        -0.000011      0.000006     -0.008430
     -0.00000      1.76299      6.88838         0.000016     -0.000009      0.008424
 -----------------------------------------------------------------------------------
    total drift:                                0.000000     -0.000001      0.000001


--------------------------------------------------------------------------------------------------------



  FREE ENERGIE OF THE ION-ELECTRON SYSTEM (eV)
  ---------------------------------------------------
  free  energy   TOTEN  =       -60.16144142 eV

  energy  without entropy=      -60.16144142  energy(sigma->0) =      -60.16144142
 


--------------------------------------------------------------------------------------------------------


    POTLOK:  cpu time    0.0096: real time    0.0096


--------------------------------------------------------------------------------------------------------


 writing wavefunctions
     LOOP+:  cpu time 1816.5996: real time 1850.3064
 -----------------------------------------------------------------------------
|                                                                             |
|           W    W    AA    RRRRR   N    N  II  N    N   GGGG   !!!           |
|           W    W   A  A   R    R  NN   N  II  NN   N  G    G  !!!           |
|           W    W  A    A  R    R  N N  N  II  N N  N  G       !!!           |
|           W WW W  AAAAAA  RRRRR   N  N N  II  N  N N  G  GGG   !            |
|           WW  WW  A    A  R   R   N   NN  II  N   NN  G    G                |
|           W    W  A    A  R    R  N    N  II  N    N   GGGG   !!!           |
|                                                                             |
|     Tetrahedron method does not include variations of the Fermi             |
|     occupations, so forces and stress will be inaccurate. We suggest        |
|     using a different smearing scheme ISMEAR = 1 or 2 for metals in         |
|     relaxations.                                                            |
|                                                                             |
 -----------------------------------------------------------------------------

    4ORBIT:  cpu time    0.0000: real time    0.0000
 


 total charge     
 
# of ion       s       p       d       tot
------------------------------------------
    1        0.363   0.493   8.356   9.212
    2        0.363   0.493   8.358   9.214
    3        1.258   2.555   0.000   3.814
    4        1.258   2.555   0.000   3.814
    5        1.258   2.556   0.000   3.814
    6        1.258   2.555   0.000   3.814
    7        0.925   1.793   0.000   2.718
    8        0.925   1.793   0.000   2.718
--------------------------------------------------
tot          7.609  14.794  16.714  39.117
 
 BZINTS: Fermi energy:    6.285002;   48.000000 electrons
         Band energy:-0.273626E+02;  BLOECHL correction:   -0.008484

 total amount of memory used by VASP MPI-rank0   255553. kBytes
=======================================================================

   base      :      30000. kBytes
   nonl-proj :     114293. kBytes
   fftplans  :        502. kBytes
   grid      :        852. kBytes
   one-center:         15. kBytes
   wavefun   :     109891. kBytes
 
  
  
 General timing and accounting informations for this job:
 ========================================================
  
                  Total CPU time used (sec):     1944.776
                            User time (sec):     1905.708
                          System time (sec):       39.068
                         Elapsed time (sec):     1980.303
  
                   Maximum memory used (kb):      371504.
                   Average memory used (kb):           0.
  
                          Minor page faults:        94644
                          Major page faults:           46
                 Voluntary context switches:        10511
