  COHP#    atomMU    atomNU   distance   translation   ICOHP (at) eF    ICOHP (at) eF 
                                                          for spin 1       for spin 2 
      1       Ni1       Ni1    3.09605    -1  -1   0        -0.03433         -0.03173 
      1    Ni1_4s    Ni1_4s    3.09605    -1  -1   0        -0.03604         -0.03446 
      1    Ni1_4s Ni1_3d_xy    3.09605    -1  -1   0         0.00003          0.00000 
      1    Ni1_4s Ni1_3d_yz    3.09605    -1  -1   0         0.00008          0.00008 
      1    Ni1_4s Ni1_3d_z^2    3.09605    -1  -1   0        -0.00018          0.00010 
      1    Ni1_4s Ni1_3d_xz    3.09605    -1  -1   0         0.00038          0.00036 
      1    Ni1_4s Ni1_3d_x^2-y^2    3.09605    -1  -1   0        -0.00051          0.00052 
      1 Ni1_3d_xy    Ni1_4s    3.09605    -1  -1   0         0.00003          0.00000 
      1 Ni1_3d_xy Ni1_3d_xy    3.09605    -1  -1   0         0.00005          0.00003 
      1 Ni1_3d_xy Ni1_3d_yz    3.09605    -1  -1   0        -0.00001          0.00002 
      1 Ni1_3d_xy Ni1_3d_z^2    3.09605    -1  -1   0         0.00001          0.00001 
      1 Ni1_3d_xy Ni1_3d_xz    3.09605    -1  -1   0         0.00008          0.00003 
      1 Ni1_3d_xy Ni1_3d_x^2-y^2    3.09605    -1  -1   0         0.00001          0.00000 
      1 Ni1_3d_yz    Ni1_4s    3.09605    -1  -1   0         0.00008          0.00008 
      1 Ni1_3d_yz Ni1_3d_xy    3.09605    -1  -1   0        -0.00001          0.00002 
      1 Ni1_3d_yz Ni1_3d_yz    3.09605    -1  -1   0         0.00005          0.00003 
      1 Ni1_3d_yz Ni1_3d_z^2    3.09605    -1  -1   0        -0.00000          0.00002 
      1 Ni1_3d_yz Ni1_3d_xz    3.09605    -1  -1   0         0.00002          0.00000 
      1 Ni1_3d_yz Ni1_3d_x^2-y^2    3.09605    -1  -1   0         0.00002         -0.00004 
      1 Ni1_3d_z^2    Ni1_4s    3.09605    -1  -1   0        -0.00018          0.00010 
      1 Ni1_3d_z^2 Ni1_3d_xy    3.09605    -1  -1   0         0.00001          0.00001 
      1 Ni1_3d_z^2 Ni1_3d_yz    3.09605    -1  -1   0        -0.00000          0.00002 
      1 Ni1_3d_z^2 Ni1_3d_z^2    3.09605    -1  -1   0        -0.00017          0.00000 
      1 Ni1_3d_z^2 Ni1_3d_xz    3.09605    -1  -1   0        -0.00008         -0.00002 
      1 Ni1_3d_z^2 Ni1_3d_x^2-y^2    3.09605    -1  -1   0         0.00018         -0.00007 
      1 Ni1_3d_xz    Ni1_4s    3.09605    -1  -1   0         0.00038          0.00036 
      1 Ni1_3d_xz Ni1_3d_xy    3.09605    -1  -1   0         0.00008          0.00003 
      1 Ni1_3d_xz Ni1_3d_yz    3.09605    -1  -1   0         0.00002          0.00000 
      1 Ni1_3d_xz Ni1_3d_z^2    3.09605    -1  -1   0        -0.00008         -0.00002 
      1 Ni1_3d_xz Ni1_3d_xz    3.09605    -1  -1   0         0.00060          0.00042 
      1 Ni1_3d_xz Ni1_3d_x^2-y^2    3.09605    -1  -1   0         0.00060          0.00011 
      1 Ni1_3d_x^2-y^2    Ni1_4s    3.09605    -1  -1   0        -0.00051          0.00052 
      1 Ni1_3d_x^2-y^2 Ni1_3d_xy    3.09605    -1  -1   0         0.00001          0.00000 
      1 Ni1_3d_x^2-y^2 Ni1_3d_yz    3.09605    -1  -1   0         0.00002         -0.00004 
      1 Ni1_3d_x^2-y^2 Ni1_3d_z^2    3.09605    -1  -1   0         0.00018         -0.00007 
      1 Ni1_3d_x^2-y^2 Ni1_3d_xz    3.09605    -1  -1   0         0.00060          0.00011 
      1 Ni1_3d_x^2-y^2 Ni1_3d_x^2-y^2    3.09605    -1  -1   0        -0.00003         -0.00000 
      2       Ni1       Ni1    3.09605     0  -1   0        -0.03433         -0.03174 
      2    Ni1_4s    Ni1_4s    3.09605     0  -1   0        -0.03604         -0.03447 
      2    Ni1_4s Ni1_3d_xy    3.09605     0  -1   0         0.00035          0.00035 
      2    Ni1_4s Ni1_3d_yz    3.09605     0  -1   0         0.00007          0.00002 
      2    Ni1_4s Ni1_3d_z^2    3.09605     0  -1   0        -0.00068          0.00069 
      2    Ni1_4s Ni1_3d_xz    3.09605     0  -1   0         0.00006          0.00001 
      2    Ni1_4s Ni1_3d_x^2-y^2    3.09605     0  -1   0         0.00000          0.00000 
      2 Ni1_3d_xy    Ni1_4s    3.09605     0  -1   0         0.00035          0.00035 
      2 Ni1_3d_xy Ni1_3d_xy    3.09605     0  -1   0         0.00074          0.00048 
      2 Ni1_3d_xy Ni1_3d_yz    3.09605     0  -1   0        -0.00001         -0.00000 
      2 Ni1_3d_xy Ni1_3d_z^2    3.09605     0  -1   0         0.00048          0.00010 
      2 Ni1_3d_xy Ni1_3d_xz    3.09605     0  -1   0        -0.00001         -0.00000 
      2 Ni1_3d_xy Ni1_3d_x^2-y^2    3.09605     0  -1   0         0.00007         -0.00001 
      2 Ni1_3d_yz    Ni1_4s    3.09605     0  -1   0         0.00007          0.00002 
      2 Ni1_3d_yz Ni1_3d_xy    3.09605     0  -1   0        -0.00001         -0.00000 
      2 Ni1_3d_yz Ni1_3d_yz    3.09605     0  -1   0         0.00007          0.00003 
      2 Ni1_3d_yz Ni1_3d_z^2    3.09605     0  -1   0        -0.00000         -0.00000 
      2 Ni1_3d_yz Ni1_3d_xz    3.09605     0  -1   0         0.00000          0.00003 
      2 Ni1_3d_yz Ni1_3d_x^2-y^2    3.09605     0  -1   0        -0.00000         -0.00000 
      2 Ni1_3d_z^2    Ni1_4s    3.09605     0  -1   0        -0.00068          0.00069 
      2 Ni1_3d_z^2 Ni1_3d_xy    3.09605     0  -1   0         0.00048          0.00010 
      2 Ni1_3d_z^2 Ni1_3d_yz    3.09605     0  -1   0        -0.00000         -0.00000 
      2 Ni1_3d_z^2 Ni1_3d_z^2    3.09605     0  -1   0         0.00021         -0.00013 
      2 Ni1_3d_z^2 Ni1_3d_xz    3.09605     0  -1   0        -0.00000         -0.00000 
      2 Ni1_3d_z^2 Ni1_3d_x^2-y^2    3.09605     0  -1   0         0.00001          0.00000 
      2 Ni1_3d_xz    Ni1_4s    3.09605     0  -1   0         0.00006          0.00001 
      2 Ni1_3d_xz Ni1_3d_xy    3.09605     0  -1   0        -0.00001         -0.00000 
      2 Ni1_3d_xz Ni1_3d_yz    3.09605     0  -1   0         0.00000          0.00003 
      2 Ni1_3d_xz Ni1_3d_z^2    3.09605     0  -1   0        -0.00000         -0.00000 
      2 Ni1_3d_xz Ni1_3d_xz    3.09605     0  -1   0         0.00008          0.00004 
      2 Ni1_3d_xz Ni1_3d_x^2-y^2    3.09605     0  -1   0        -0.00000          0.00000 
      2 Ni1_3d_x^2-y^2    Ni1_4s    3.09605     0  -1   0         0.00000          0.00000 
      2 Ni1_3d_x^2-y^2 Ni1_3d_xy    3.09605     0  -1   0         0.00007         -0.00001 
      2 Ni1_3d_x^2-y^2 Ni1_3d_yz    3.09605     0  -1   0        -0.00000         -0.00000 
      2 Ni1_3d_x^2-y^2 Ni1_3d_z^2    3.09605     0  -1   0         0.00001          0.00000 
      2 Ni1_3d_x^2-y^2 Ni1_3d_xz    3.09605     0  -1   0        -0.00000          0.00000 
      2 Ni1_3d_x^2-y^2 Ni1_3d_x^2-y^2    3.09605     0  -1   0        -0.00004         -0.00004 
      3       Ni1       Ni1    3.09605    -1   0   0        -0.03434         -0.03173 
      3    Ni1_4s    Ni1_4s    3.09605    -1   0   0        -0.03604         -0.03446 
      3    Ni1_4s Ni1_3d_xy    3.09605    -1   0   0         0.00003          0.00004 
      3    Ni1_4s Ni1_3d_yz    3.09605    -1   0   0         0.00042          0.00039 
      3    Ni1_4s Ni1_3d_z^2    3.09605    -1   0   0        -0.00018          0.00010 
      3    Ni1_4s Ni1_3d_xz    3.09605    -1   0   0         0.00004          0.00004 
      3    Ni1_4s Ni1_3d_x^2-y^2    3.09605    -1   0   0        -0.00051          0.00049 
      3 Ni1_3d_xy    Ni1_4s    3.09605    -1   0   0         0.00003          0.00004 
      3 Ni1_3d_xy Ni1_3d_xy    3.09605    -1   0   0         0.00007          0.00003 
      3 Ni1_3d_xy Ni1_3d_yz    3.09605    -1   0   0        -0.00002          0.00001 
      3 Ni1_3d_xy Ni1_3d_z^2    3.09605    -1   0   0        -0.00000         -0.00000 
      3 Ni1_3d_xy Ni1_3d_xz    3.09605    -1   0   0        -0.00001          0.00000 
      3 Ni1_3d_xy Ni1_3d_x^2-y^2    3.09605    -1   0   0        -0.00001         -0.00000 
      3 Ni1_3d_yz    Ni1_4s    3.09605    -1   0   0         0.00042          0.00039 
      3 Ni1_3d_yz Ni1_3d_xy    3.09605    -1   0   0        -0.00002          0.00001 
      3 Ni1_3d_yz Ni1_3d_yz    3.09605    -1   0   0         0.00068          0.00044 
      3 Ni1_3d_yz Ni1_3d_z^2    3.09605    -1   0   0        -0.00007         -0.00002 
      3 Ni1_3d_yz Ni1_3d_xz    3.09605    -1   0   0        -0.00003         -0.00000 
      3 Ni1_3d_yz Ni1_3d_x^2-y^2    3.09605    -1   0   0         0.00072          0.00012 
      3 Ni1_3d_z^2    Ni1_4s    3.09605    -1   0   0        -0.00018          0.00010 
      3 Ni1_3d_z^2 Ni1_3d_xy    3.09605    -1   0   0        -0.00000         -0.00000 
      3 Ni1_3d_z^2 Ni1_3d_yz    3.09605    -1   0   0        -0.00007         -0.00002 
      3 Ni1_3d_z^2 Ni1_3d_z^2    3.09605    -1   0   0        -0.00017          0.00000 
      3 Ni1_3d_z^2 Ni1_3d_xz    3.09605    -1   0   0        -0.00001          0.00001 
      3 Ni1_3d_z^2 Ni1_3d_x^2-y^2    3.09605    -1   0   0         0.00019         -0.00005 
      3 Ni1_3d_xz    Ni1_4s    3.09605    -1   0   0         0.00004          0.00004 
      3 Ni1_3d_xz Ni1_3d_xy    3.09605    -1   0   0        -0.00001          0.00000 
      3 Ni1_3d_xz Ni1_3d_yz    3.09605    -1   0   0        -0.00003         -0.00000 
      3 Ni1_3d_xz Ni1_3d_z^2    3.09605    -1   0   0        -0.00001          0.00001 
      3 Ni1_3d_xz Ni1_3d_xz    3.09605    -1   0   0         0.00006          0.00003 
      3 Ni1_3d_xz Ni1_3d_x^2-y^2    3.09605    -1   0   0        -0.00001         -0.00001 
      3 Ni1_3d_x^2-y^2    Ni1_4s    3.09605    -1   0   0        -0.00051          0.00049 
      3 Ni1_3d_x^2-y^2 Ni1_3d_xy    3.09605    -1   0   0        -0.00001         -0.00000 
      3 Ni1_3d_x^2-y^2 Ni1_3d_yz    3.09605    -1   0   0         0.00072          0.00012 
      3 Ni1_3d_x^2-y^2 Ni1_3d_z^2    3.09605    -1   0   0         0.00019         -0.00005 
      3 Ni1_3d_x^2-y^2 Ni1_3d_xz    3.09605    -1   0   0        -0.00001         -0.00001 
      3 Ni1_3d_x^2-y^2 Ni1_3d_x^2-y^2    3.09605    -1   0   0        -0.00001         -0.00000 
      4       Ni1       Ni1    0.00000     0   0   0        18.70639         18.71731 
      4    Ni1_4s    Ni1_4s    0.00000     0   0   0         2.21177          2.19055 
      4    Ni1_4s Ni1_3d_xy    0.00000     0   0   0        -0.00416         -0.00365 
      4    Ni1_4s Ni1_3d_yz    0.00000     0   0   0        -0.00646         -0.00567 
      4    Ni1_4s Ni1_3d_z^2    0.00000     0   0   0        -0.00022         -0.00019 
      4    Ni1_4s Ni1_3d_xz    0.00000     0   0   0        -0.00525         -0.00461 
      4    Ni1_4s Ni1_3d_x^2-y^2    0.00000     0   0   0        -0.00005         -0.00004 
      4 Ni1_3d_xy    Ni1_4s    0.00000     0   0   0        -0.00416         -0.00365 
      4 Ni1_3d_xy Ni1_3d_xy    0.00000     0   0   0         4.23036          3.58690 
      4 Ni1_3d_xy Ni1_3d_yz    0.00000     0   0   0         0.00001          0.00001 
      4 Ni1_3d_xy Ni1_3d_z^2    0.00000     0   0   0        -0.00061         -0.00001 
      4 Ni1_3d_xy Ni1_3d_xz    0.00000     0   0   0         0.00000         -0.00001 
      4 Ni1_3d_xy Ni1_3d_x^2-y^2    0.00000     0   0   0        -0.00624          0.00031 
      4 Ni1_3d_yz    Ni1_4s    0.00000     0   0   0        -0.00646         -0.00567 
      4 Ni1_3d_yz Ni1_3d_xy    0.00000     0   0   0         0.00001          0.00001 
      4 Ni1_3d_yz Ni1_3d_yz    0.00000     0   0   0         4.23345          3.59041 
      4 Ni1_3d_yz Ni1_3d_z^2    0.00000     0   0   0        -0.00747          0.00026 
      4 Ni1_3d_yz Ni1_3d_xz    0.00000     0   0   0        -0.00008         -0.00002 
      4 Ni1_3d_yz Ni1_3d_x^2-y^2    0.00000     0   0   0        -0.00058          0.00014 
      4 Ni1_3d_z^2    Ni1_4s    0.00000     0   0   0        -0.00022         -0.00019 
      4 Ni1_3d_z^2 Ni1_3d_xy    0.00000     0   0   0        -0.00061         -0.00001 
      4 Ni1_3d_z^2 Ni1_3d_yz    0.00000     0   0   0        -0.00747          0.00026 
      4 Ni1_3d_z^2 Ni1_3d_z^2    0.00000     0   0   0         1.94931          2.89289 
      4 Ni1_3d_z^2 Ni1_3d_xz    0.00000     0   0   0        -0.00606          0.00021 
      4 Ni1_3d_z^2 Ni1_3d_x^2-y^2    0.00000     0   0   0        -0.00001         -0.00000 
      4 Ni1_3d_xz    Ni1_4s    0.00000     0   0   0        -0.00525         -0.00461 
      4 Ni1_3d_xz Ni1_3d_xy    0.00000     0   0   0         0.00000         -0.00001 
      4 Ni1_3d_xz Ni1_3d_yz    0.00000     0   0   0        -0.00008         -0.00002 
      4 Ni1_3d_xz Ni1_3d_z^2    0.00000     0   0   0        -0.00606          0.00021 
      4 Ni1_3d_xz Ni1_3d_xz    0.00000     0   0   0         4.23249          3.58808 
      4 Ni1_3d_xz Ni1_3d_x^2-y^2    0.00000     0   0   0        -0.00070          0.00019 
      4 Ni1_3d_x^2-y^2    Ni1_4s    0.00000     0   0   0        -0.00005         -0.00004 
      4 Ni1_3d_x^2-y^2 Ni1_3d_xy    0.00000     0   0   0        -0.00624          0.00031 
      4 Ni1_3d_x^2-y^2 Ni1_3d_yz    0.00000     0   0   0        -0.00058          0.00014 
      4 Ni1_3d_x^2-y^2 Ni1_3d_z^2    0.00000     0   0   0        -0.00001         -0.00000 
      4 Ni1_3d_x^2-y^2 Ni1_3d_xz    0.00000     0   0   0        -0.00070          0.00019 
      4 Ni1_3d_x^2-y^2 Ni1_3d_x^2-y^2    0.00000     0   0   0         1.92472          2.89462 
      5       Ni1       Ni1    3.09605     1   0   0        -0.03434         -0.03173 
      5    Ni1_4s    Ni1_4s    3.09605     1   0   0        -0.03604         -0.03446 
      5    Ni1_4s Ni1_3d_xy    3.09605     1   0   0         0.00003          0.00004 
      5    Ni1_4s Ni1_3d_yz    3.09605     1   0   0         0.00042          0.00039 
      5    Ni1_4s Ni1_3d_z^2    3.09605     1   0   0        -0.00018          0.00010 
      5    Ni1_4s Ni1_3d_xz    3.09605     1   0   0         0.00004          0.00004 
      5    Ni1_4s Ni1_3d_x^2-y^2    3.09605     1   0   0        -0.00051          0.00049 
      5 Ni1_3d_xy    Ni1_4s    3.09605     1   0   0         0.00003          0.00004 
      5 Ni1_3d_xy Ni1_3d_xy    3.09605     1   0   0         0.00007          0.00003 
      5 Ni1_3d_xy Ni1_3d_yz    3.09605     1   0   0        -0.00002          0.00001 
      5 Ni1_3d_xy Ni1_3d_z^2    3.09605     1   0   0        -0.00000         -0.00000 
      5 Ni1_3d_xy Ni1_3d_xz    3.09605     1   0   0        -0.00001          0.00000 
      5 Ni1_3d_xy Ni1_3d_x^2-y^2    3.09605     1   0   0        -0.00001         -0.00000 
      5 Ni1_3d_yz    Ni1_4s    3.09605     1   0   0         0.00042          0.00039 
      5 Ni1_3d_yz Ni1_3d_xy    3.09605     1   0   0        -0.00002          0.00001 
      5 Ni1_3d_yz Ni1_3d_yz    3.09605     1   0   0         0.00068          0.00044 
      5 Ni1_3d_yz Ni1_3d_z^2    3.09605     1   0   0        -0.00007         -0.00002 
      5 Ni1_3d_yz Ni1_3d_xz    3.09605     1   0   0        -0.00003         -0.00000 
      5 Ni1_3d_yz Ni1_3d_x^2-y^2    3.09605     1   0   0         0.00072          0.00012 
      5 Ni1_3d_z^2    Ni1_4s    3.09605     1   0   0        -0.00018          0.00010 
      5 Ni1_3d_z^2 Ni1_3d_xy    3.09605     1   0   0        -0.00000         -0.00000 
      5 Ni1_3d_z^2 Ni1_3d_yz    3.09605     1   0   0        -0.00007         -0.00002 
      5 Ni1_3d_z^2 Ni1_3d_z^2    3.09605     1   0   0        -0.00017          0.00000 
      5 Ni1_3d_z^2 Ni1_3d_xz    3.09605     1   0   0        -0.00001          0.00001 
      5 Ni1_3d_z^2 Ni1_3d_x^2-y^2    3.09605     1   0   0         0.00019         -0.00005 
      5 Ni1_3d_xz    Ni1_4s    3.09605     1   0   0         0.00004          0.00004 
      5 Ni1_3d_xz Ni1_3d_xy    3.09605     1   0   0        -0.00001          0.00000 
      5 Ni1_3d_xz Ni1_3d_yz    3.09605     1   0   0        -0.00003         -0.00000 
      5 Ni1_3d_xz Ni1_3d_z^2    3.09605     1   0   0        -0.00001          0.00001 
      5 Ni1_3d_xz Ni1_3d_xz    3.09605     1   0   0         0.00006          0.00003 
      5 Ni1_3d_xz Ni1_3d_x^2-y^2    3.09605     1   0   0        -0.00001         -0.00001 
      5 Ni1_3d_x^2-y^2    Ni1_4s    3.09605     1   0   0        -0.00051          0.00049 
      5 Ni1_3d_x^2-y^2 Ni1_3d_xy    3.09605     1   0   0        -0.00001         -0.00000 
      5 Ni1_3d_x^2-y^2 Ni1_3d_yz    3.09605     1   0   0         0.00072          0.00012 
      5 Ni1_3d_x^2-y^2 Ni1_3d_z^2    3.09605     1   0   0         0.00019         -0.00005 
      5 Ni1_3d_x^2-y^2 Ni1_3d_xz    3.09605     1   0   0        -0.00001         -0.00001 
      5 Ni1_3d_x^2-y^2 Ni1_3d_x^2-y^2    3.09605     1   0   0        -0.00001         -0.00000 
      6       Ni1       Ni1    3.09605     0   1   0        -0.03433         -0.03174 
      6    Ni1_4s    Ni1_4s    3.09605     0   1   0        -0.03604         -0.03447 
      6    Ni1_4s Ni1_3d_xy    3.09605     0   1   0         0.00035          0.00035 
      6    Ni1_4s Ni1_3d_yz    3.09605     0   1   0         0.00007          0.00002 
      6    Ni1_4s Ni1_3d_z^2    3.09605     0   1   0        -0.00068          0.00069 
      6    Ni1_4s Ni1_3d_xz    3.09605     0   1   0         0.00006          0.00001 
      6    Ni1_4s Ni1_3d_x^2-y^2    3.09605     0   1   0         0.00000          0.00000 
      6 Ni1_3d_xy    Ni1_4s    3.09605     0   1   0         0.00035          0.00035 
      6 Ni1_3d_xy Ni1_3d_xy    3.09605     0   1   0         0.00074          0.00048 
      6 Ni1_3d_xy Ni1_3d_yz    3.09605     0   1   0        -0.00001         -0.00000 
      6 Ni1_3d_xy Ni1_3d_z^2    3.09605     0   1   0         0.00048          0.00010 
      6 Ni1_3d_xy Ni1_3d_xz    3.09605     0   1   0        -0.00001         -0.00000 
      6 Ni1_3d_xy Ni1_3d_x^2-y^2    3.09605     0   1   0         0.00007         -0.00001 
      6 Ni1_3d_yz    Ni1_4s    3.09605     0   1   0         0.00007          0.00002 
      6 Ni1_3d_yz Ni1_3d_xy    3.09605     0   1   0        -0.00001         -0.00000 
      6 Ni1_3d_yz Ni1_3d_yz    3.09605     0   1   0         0.00007          0.00003 
      6 Ni1_3d_yz Ni1_3d_z^2    3.09605     0   1   0        -0.00000         -0.00000 
      6 Ni1_3d_yz Ni1_3d_xz    3.09605     0   1   0         0.00000          0.00003 
      6 Ni1_3d_yz Ni1_3d_x^2-y^2    3.09605     0   1   0        -0.00000         -0.00000 
      6 Ni1_3d_z^2    Ni1_4s    3.09605     0   1   0        -0.00068          0.00069 
      6 Ni1_3d_z^2 Ni1_3d_xy    3.09605     0   1   0         0.00048          0.00010 
      6 Ni1_3d_z^2 Ni1_3d_yz    3.09605     0   1   0        -0.00000         -0.00000 
      6 Ni1_3d_z^2 Ni1_3d_z^2    3.09605     0   1   0         0.00021         -0.00013 
      6 Ni1_3d_z^2 Ni1_3d_xz    3.09605     0   1   0        -0.00000         -0.00000 
      6 Ni1_3d_z^2 Ni1_3d_x^2-y^2    3.09605     0   1   0         0.00001          0.00000 
      6 Ni1_3d_xz    Ni1_4s    3.09605     0   1   0         0.00006          0.00001 
      6 Ni1_3d_xz Ni1_3d_xy    3.09605     0   1   0        -0.00001         -0.00000 
      6 Ni1_3d_xz Ni1_3d_yz    3.09605     0   1   0         0.00000          0.00003 
      6 Ni1_3d_xz Ni1_3d_z^2    3.09605     0   1   0        -0.00000         -0.00000 
      6 Ni1_3d_xz Ni1_3d_xz    3.09605     0   1   0         0.00008          0.00004 
      6 Ni1_3d_xz Ni1_3d_x^2-y^2    3.09605     0   1   0        -0.00000          0.00000 
      6 Ni1_3d_x^2-y^2    Ni1_4s    3.09605     0   1   0         0.00000          0.00000 
      6 Ni1_3d_x^2-y^2 Ni1_3d_xy    3.09605     0   1   0         0.00007         -0.00001 
      6 Ni1_3d_x^2-y^2 Ni1_3d_yz    3.09605     0   1   0        -0.00000         -0.00000 
      6 Ni1_3d_x^2-y^2 Ni1_3d_z^2    3.09605     0   1   0         0.00001          0.00000 
      6 Ni1_3d_x^2-y^2 Ni1_3d_xz    3.09605     0   1   0        -0.00000          0.00000 
      6 Ni1_3d_x^2-y^2 Ni1_3d_x^2-y^2    3.09605     0   1   0        -0.00004         -0.00004 
      7       Ni1       Ni1    3.09605     1   1   0        -0.03433         -0.03173 
      7    Ni1_4s    Ni1_4s    3.09605     1   1   0        -0.03604         -0.03446 
      7    Ni1_4s Ni1_3d_xy    3.09605     1   1   0         0.00003          0.00000 
      7    Ni1_4s Ni1_3d_yz    3.09605     1   1   0         0.00008          0.00008 
      7    Ni1_4s Ni1_3d_z^2    3.09605     1   1   0        -0.00018          0.00010 
      7    Ni1_4s Ni1_3d_xz    3.09605     1   1   0         0.00038          0.00036 
      7    Ni1_4s Ni1_3d_x^2-y^2    3.09605     1   1   0        -0.00051          0.00052 
      7 Ni1_3d_xy    Ni1_4s    3.09605     1   1   0         0.00003          0.00000 
      7 Ni1_3d_xy Ni1_3d_xy    3.09605     1   1   0         0.00005          0.00003 
      7 Ni1_3d_xy Ni1_3d_yz    3.09605     1   1   0        -0.00001          0.00002 
      7 Ni1_3d_xy Ni1_3d_z^2    3.09605     1   1   0         0.00001          0.00001 
      7 Ni1_3d_xy Ni1_3d_xz    3.09605     1   1   0         0.00008          0.00003 
      7 Ni1_3d_xy Ni1_3d_x^2-y^2    3.09605     1   1   0         0.00001          0.00000 
      7 Ni1_3d_yz    Ni1_4s    3.09605     1   1   0         0.00008          0.00008 
      7 Ni1_3d_yz Ni1_3d_xy    3.09605     1   1   0        -0.00001          0.00002 
      7 Ni1_3d_yz Ni1_3d_yz    3.09605     1   1   0         0.00005          0.00003 
      7 Ni1_3d_yz Ni1_3d_z^2    3.09605     1   1   0        -0.00000          0.00002 
      7 Ni1_3d_yz Ni1_3d_xz    3.09605     1   1   0         0.00002          0.00000 
      7 Ni1_3d_yz Ni1_3d_x^2-y^2    3.09605     1   1   0         0.00002         -0.00004 
      7 Ni1_3d_z^2    Ni1_4s    3.09605     1   1   0        -0.00018          0.00010 
      7 Ni1_3d_z^2 Ni1_3d_xy    3.09605     1   1   0         0.00001          0.00001 
      7 Ni1_3d_z^2 Ni1_3d_yz    3.09605     1   1   0        -0.00000          0.00002 
      7 Ni1_3d_z^2 Ni1_3d_z^2    3.09605     1   1   0        -0.00017          0.00000 
      7 Ni1_3d_z^2 Ni1_3d_xz    3.09605     1   1   0        -0.00008         -0.00002 
      7 Ni1_3d_z^2 Ni1_3d_x^2-y^2    3.09605     1   1   0         0.00018         -0.00007 
      7 Ni1_3d_xz    Ni1_4s    3.09605     1   1   0         0.00038          0.00036 
      7 Ni1_3d_xz Ni1_3d_xy    3.09605     1   1   0         0.00008          0.00003 
      7 Ni1_3d_xz Ni1_3d_yz    3.09605     1   1   0         0.00002          0.00000 
      7 Ni1_3d_xz Ni1_3d_z^2    3.09605     1   1   0        -0.00008         -0.00002 
      7 Ni1_3d_xz Ni1_3d_xz    3.09605     1   1   0         0.00060          0.00042 
      7 Ni1_3d_xz Ni1_3d_x^2-y^2    3.09605     1   1   0         0.00060          0.00011 
      7 Ni1_3d_x^2-y^2    Ni1_4s    3.09605     1   1   0        -0.00051          0.00052 
      7 Ni1_3d_x^2-y^2 Ni1_3d_xy    3.09605     1   1   0         0.00001          0.00000 
      7 Ni1_3d_x^2-y^2 Ni1_3d_yz    3.09605     1   1   0         0.00002         -0.00004 
      7 Ni1_3d_x^2-y^2 Ni1_3d_z^2    3.09605     1   1   0         0.00018         -0.00007 
      7 Ni1_3d_x^2-y^2 Ni1_3d_xz    3.09605     1   1   0         0.00060          0.00011 
      7 Ni1_3d_x^2-y^2 Ni1_3d_x^2-y^2    3.09605     1   1   0        -0.00003         -0.00000 
      8       Ni1       Ni2    4.61488     0   0   0         0.00353          0.00353 
      8    Ni1_4s    Ni2_4s    4.61488     0   0   0         0.00401          0.00401 
      8    Ni1_4s Ni2_3d_xy    4.61488     0   0   0        -0.00002         -0.00002 
      8    Ni1_4s Ni2_3d_yz    4.61488     0   0   0        -0.00005         -0.00005 
      8    Ni1_4s Ni2_3d_z^2    4.61488     0   0   0        -0.00007         -0.00006 
      8    Ni1_4s Ni2_3d_xz    4.61488     0   0   0        -0.00016         -0.00015 
      8    Ni1_4s Ni2_3d_x^2-y^2    4.61488     0   0   0        -0.00001         -0.00001 
      8 Ni1_3d_xy    Ni2_4s    4.61488     0   0   0        -0.00008         -0.00008 
      8 Ni1_3d_xy Ni2_3d_xy    4.61488     0   0   0        -0.00003         -0.00003 
      8 Ni1_3d_xy Ni2_3d_yz    4.61488     0   0   0        -0.00000         -0.00000 
      8 Ni1_3d_xy Ni2_3d_z^2    4.61488     0   0   0         0.00000         -0.00001 
      8 Ni1_3d_xy Ni2_3d_xz    4.61488     0   0   0         0.00000          0.00000 
      8 Ni1_3d_xy Ni2_3d_x^2-y^2    4.61488     0   0   0        -0.00001         -0.00000 
      8 Ni1_3d_yz    Ni2_4s    4.61488     0   0   0        -0.00012         -0.00013 
      8 Ni1_3d_yz Ni2_3d_xy    4.61488     0   0   0         0.00000         -0.00000 
      8 Ni1_3d_yz Ni2_3d_yz    4.61488     0   0   0         0.00005          0.00005 
      8 Ni1_3d_yz Ni2_3d_z^2    4.61488     0   0   0        -0.00007         -0.00005 
      8 Ni1_3d_yz Ni2_3d_xz    4.61488     0   0   0         0.00001          0.00000 
      8 Ni1_3d_yz Ni2_3d_x^2-y^2    4.61488     0   0   0        -0.00002         -0.00004 
      8 Ni1_3d_z^2    Ni2_4s    4.61488     0   0   0        -0.00000         -0.00000 
      8 Ni1_3d_z^2 Ni2_3d_xy    4.61488     0   0   0         0.00000          0.00001 
      8 Ni1_3d_z^2 Ni2_3d_yz    4.61488     0   0   0         0.00001          0.00003 
      8 Ni1_3d_z^2 Ni2_3d_z^2    4.61488     0   0   0         0.00009          0.00008 
      8 Ni1_3d_z^2 Ni2_3d_xz    4.61488     0   0   0        -0.00001         -0.00001 
      8 Ni1_3d_z^2 Ni2_3d_x^2-y^2    4.61488     0   0   0         0.00000          0.00000 
      8 Ni1_3d_xz    Ni2_4s    4.61488     0   0   0        -0.00010         -0.00010 
      8 Ni1_3d_xz Ni2_3d_xy    4.61488     0   0   0        -0.00001         -0.00001 
      8 Ni1_3d_xz Ni2_3d_yz    4.61488     0   0   0         0.00001          0.00001 
      8 Ni1_3d_xz Ni2_3d_z^2    4.61488     0   0   0        -0.00001         -0.00001 
      8 Ni1_3d_xz Ni2_3d_xz    4.61488     0   0   0        -0.00002         -0.00002 
      8 Ni1_3d_xz Ni2_3d_x^2-y^2    4.61488     0   0   0        -0.00001         -0.00001 
      8 Ni1_3d_x^2-y^2    Ni2_4s    4.61488     0   0   0        -0.00000         -0.00000 
      8 Ni1_3d_x^2-y^2 Ni2_3d_xy    4.61488     0   0   0        -0.00000          0.00000 
      8 Ni1_3d_x^2-y^2 Ni2_3d_yz    4.61488     0   0   0        -0.00002         -0.00003 
      8 Ni1_3d_x^2-y^2 Ni2_3d_z^2    4.61488     0   0   0        -0.00001         -0.00001 
      8 Ni1_3d_x^2-y^2 Ni2_3d_xz    4.61488     0   0   0        -0.00003         -0.00002 
      8 Ni1_3d_x^2-y^2 Ni2_3d_x^2-y^2    4.61488     0   0   0         0.00019          0.00021 
      9       Ni1       Ni2    4.61488     0   0   1         0.00353          0.00353 
      9    Ni1_4s    Ni2_4s    4.61488     0   0   1         0.00401          0.00401 
      9    Ni1_4s Ni2_3d_xy    4.61488     0   0   1        -0.00002         -0.00002 
      9    Ni1_4s Ni2_3d_yz    4.61488     0   0   1        -0.00005         -0.00005 
      9    Ni1_4s Ni2_3d_z^2    4.61488     0   0   1        -0.00007         -0.00006 
      9    Ni1_4s Ni2_3d_xz    4.61488     0   0   1        -0.00016         -0.00015 
      9    Ni1_4s Ni2_3d_x^2-y^2    4.61488     0   0   1        -0.00001         -0.00001 
      9 Ni1_3d_xy    Ni2_4s    4.61488     0   0   1        -0.00008         -0.00008 
      9 Ni1_3d_xy Ni2_3d_xy    4.61488     0   0   1        -0.00003         -0.00003 
      9 Ni1_3d_xy Ni2_3d_yz    4.61488     0   0   1        -0.00000         -0.00000 
      9 Ni1_3d_xy Ni2_3d_z^2    4.61488     0   0   1         0.00000         -0.00001 
      9 Ni1_3d_xy Ni2_3d_xz    4.61488     0   0   1         0.00000          0.00000 
      9 Ni1_3d_xy Ni2_3d_x^2-y^2    4.61488     0   0   1        -0.00001         -0.00000 
      9 Ni1_3d_yz    Ni2_4s    4.61488     0   0   1        -0.00012         -0.00013 
      9 Ni1_3d_yz Ni2_3d_xy    4.61488     0   0   1         0.00000         -0.00000 
      9 Ni1_3d_yz Ni2_3d_yz    4.61488     0   0   1         0.00005          0.00005 
      9 Ni1_3d_yz Ni2_3d_z^2    4.61488     0   0   1        -0.00007         -0.00005 
      9 Ni1_3d_yz Ni2_3d_xz    4.61488     0   0   1         0.00001          0.00000 
      9 Ni1_3d_yz Ni2_3d_x^2-y^2    4.61488     0   0   1        -0.00002         -0.00004 
      9 Ni1_3d_z^2    Ni2_4s    4.61488     0   0   1        -0.00000         -0.00000 
      9 Ni1_3d_z^2 Ni2_3d_xy    4.61488     0   0   1         0.00000          0.00001 
      9 Ni1_3d_z^2 Ni2_3d_yz    4.61488     0   0   1         0.00001          0.00003 
      9 Ni1_3d_z^2 Ni2_3d_z^2    4.61488     0   0   1         0.00009          0.00008 
      9 Ni1_3d_z^2 Ni2_3d_xz    4.61488     0   0   1        -0.00001         -0.00001 
      9 Ni1_3d_z^2 Ni2_3d_x^2-y^2    4.61488     0   0   1         0.00000          0.00000 
      9 Ni1_3d_xz    Ni2_4s    4.61488     0   0   1        -0.00010         -0.00010 
      9 Ni1_3d_xz Ni2_3d_xy    4.61488     0   0   1        -0.00001         -0.00001 
      9 Ni1_3d_xz Ni2_3d_yz    4.61488     0   0   1         0.00001          0.00001 
      9 Ni1_3d_xz Ni2_3d_z^2    4.61488     0   0   1        -0.00001         -0.00001 
      9 Ni1_3d_xz Ni2_3d_xz    4.61488     0   0   1        -0.00002         -0.00002 
      9 Ni1_3d_xz Ni2_3d_x^2-y^2    4.61488     0   0   1        -0.00001         -0.00001 
      9 Ni1_3d_x^2-y^2    Ni2_4s    4.61488     0   0   1        -0.00000         -0.00000 
      9 Ni1_3d_x^2-y^2 Ni2_3d_xy    4.61488     0   0   1        -0.00000          0.00000 
      9 Ni1_3d_x^2-y^2 Ni2_3d_yz    4.61488     0   0   1        -0.00002         -0.00003 
      9 Ni1_3d_x^2-y^2 Ni2_3d_z^2    4.61488     0   0   1        -0.00001         -0.00001 
      9 Ni1_3d_x^2-y^2 Ni2_3d_xz    4.61488     0   0   1        -0.00003         -0.00002 
      9 Ni1_3d_x^2-y^2 Ni2_3d_x^2-y^2    4.61488     0   0   1         0.00019          0.00021 
     10       Ni1        N3    3.73205    -2  -1   0        -0.00161         -0.00143 
     10    Ni1_4s     N3_2s    3.73205    -2  -1   0         0.00001         -0.00020 