ESCALE ; pCOHP file generated by LOBSTER. Energy is shifted such that the Fermi level lies at 0 eV.
        31          2        401  -9.41849e+00   1.06316e+01   5.61910e+00 
Average
No.1:CN2_1->CN2_1(3.0960512137019323)
No.2:CN2_1->CN2_1(3.0960512137492255)
No.3:CN2_1->CN2_1(3.0960512137010578)
No.4:CN2_1->CN2_1(3.0960512137010578)
No.5:CN2_1->CN2_1(3.0960512137492255)
No.6:CN2_1->CN2_1(3.0960512137019323)
No.7:CN2_1->Ni_2(3.7320471185171296)
No.8:CN2_1->Ni_2(2.0839008102001917)
No.9:CN2_1->Ni_2(3.7320471211378892)
No.10:CN2_1->Ni_2(2.0839009458939444)
No.11:CN2_1->Ni_2(2.0839009481704331)
No.12:CN2_1->Ni_2(3.7320472726767222)
No.13:CN2_1->Ni_3(3.7320471185171296)
No.14:CN2_1->Ni_3(2.0839008102001917)
No.15:CN2_1->Ni_3(3.7320471211378892)
No.16:CN2_1->Ni_3(2.0839009458939444)
No.17:CN2_1->Ni_3(2.0839009481704331)
No.18:CN2_1->Ni_3(3.7320472726767222)
No.19:CN2_1->N_4(2.7901683724053261)
No.20:CN2_1->N_4(2.7901684273903173)
No.21:CN2_1->N_4(2.790168527019194)
No.22:CN2_1->N_5(2.7901683724053257)
No.23:CN2_1->N_5(2.7901684273903169)
No.24:CN2_1->N_5(2.790168527019194)
No.25:CN2_1->C_6(3.8223511233849909)
No.26:CN2_1->C_6(3.8223511635219061)
No.27:CN2_1->C_6(3.8223512362471315)
No.28:CN2_1->C_6(3.8223511233849909)
No.29:CN2_1->C_6(3.8223511635219061)
No.30:CN2_1->C_6(3.8223512362471315)
-15.03759   0.00000  -0.04644   0.00000  -0.01518   0.00000  -0.01519   0.00000  -0.01519   0.00000  -0.01519   0.00000  -0.01519   0.00000  -0.01518   0.00000  -0.00093   0.00000  -0.21264   0.00000  -0.00093   0.00000  -0.21261   0.00000  -0.21264   0.00000  -0.00093   0.00000  -0.00095   0.00000  -0.21164   0.00000  -0.00095   0.00000  -0.21166   0.00000  -0.21164   0.00000  -0.00095   0.00000  -0.00252   0.00000  -0.00258   0.00000  -0.00251   0.00000   0.00152   0.00000   0.00145   0.00000   0.00150   0.00000  -0.00323   0.00000  -0.00323   0.00000  -0.00323   0.00000  -0.00362   0.00000  -0.00363   0.00000  -0.00362   0.00000  -0.04644   0.00000  -0.01518   0.00000  -0.01518   0.00000  -0.01518   0.00000  -0.01518   0.00000  -0.01518   0.00000  -0.01518   0.00000  -0.00095   0.00000  -0.21162   0.00000  -0.00094   0.00000  -0.21167   0.00000  -0.21164   0.00000  -0.00095   0.00000  -0.00093   0.00000  -0.21266   0.00000  -0.00093   0.00000  -0.21261   0.00000  -0.21265   0.00000  -0.00093   0.00000   0.00148   0.00000   0.00146   0.00000   0.00149   0.00000  -0.00256   0.00000  -0.00253   0.00000  -0.00257   0.00000  -0.00362   0.00000  -0.00362   0.00000  -0.00362   0.00000  -0.00323   0.00000  -0.00322   0.00000  -0.00323
-14.98747   0.00000  -0.04644   0.00000  -0.01518   0.00000  -0.01519   0.00000  -0.01519   0.00000  -0.01519   0.00000  -0.01519   0.00000  -0.01518   0.00000  -0.00093   0.00000  -0.21264   0.00000  -0.00093   0.00000  -0.21261   0.00000  -0.21264   0.00000  -0.00093   0.00000  -0.00095   0.00000  -0.21164   0.00000  -0.00095   0.00000  -0.21166   0.00000  -0.21164   0.00000  -0.00095   0.00000  -0.00252   0.00000  -0.00258   0.00000  -0.00251   0.00000   0.00152   0.00000   0.00145   0.00000   0.00150   0.00000  -0.00323   0.00000  -0.00323   0.00000  -0.00323   0.00000  -0.00362   0.00000  -0.00363   0.00000  -0.00362   0.00000  -0.04644   0.00000  -0.01518   0.00000  -0.01518   0.00000  -0.01518   0.00000  -0.01518   0.00000  -0.01518   0.00000  -0.01518   0.00000  -0.00095   0.00000  -0.21162   0.00000  -0.00094   0.00000  -0.21167   0.00000  -0.21164   0.00000  -0.00095   0.00000  -0.00093   0.00000  -0.21266   0.00000  -0.00093   0.00000  -0.21261   0.00000  -0.21265   0.00000  -0.00093   0.00000   0.00148   0.00000   0.00146   0.00000   0.00149   0.00000  -0.00256   0.00000  -0.00253   0.00000  -0.00257   0.00000  -0.00362   0.00000  -0.00362   0.00000  -0.00362   0.00000  -0.00323   0.00000  -0.00322   0.00000  -0.00323
-14.93734   0.00000  -0.04644   0.00000  -0.01518   0.00000  -0.01519   0.00000  -0.01519   0.00000  -0.01519   0.00000  -0.01519   0.00000  -0.01518   0.00000  -0.00093   0.00000  -0.21264   0.00000  -0.00093   0.00000  -0.21261   0.00000  -0.21264   0.00000  -0.00093   0.00000  -0.00095   0.00000  -0.21164   0.00000  -0.00095   0.00000  -0.21166   0.00000  -0.21164   0.00000  -0.00095   0.00000  -0.00252   0.00000  -0.00258   0.00000  -0.00251   0.00000   0.00152   0.00000   0.00145   0.00000   0.00150   0.00000  -0.00323   0.00000  -0.00323   0.00000  -0.00323   0.00000  -0.00362   0.00000  -0.00363   0.00000  -0.00362   0.00000  -0.04644   0.00000  -0.01518   0.00000  -0.01518   0.00000  -0.01518   0.00000  -0.01518   0.00000  -0.01518   0.00000  -0.01518   0.00000  -0.00095   0.00000  -0.21162   0.00000  -0.00094   0.00000  -0.21167   0.00000  -0.21164   0.00000  -0.00095   0.00000  -0.00093   0.00000  -0.21266   0.00000  -0.00093   0.00000  -0.21261   0.00000  -0.21265   0.00000  -0.00093   0.00000   0.00148   0.00000   0.00146   0.00000   0.00149   0.00000  -0.00256   0.00000  -0.00253   0.00000  -0.00257   0.00000  -0.00362   0.00000  -0.00362   0.00000  -0.00362   0.00000  -0.00323   0.00000  -0.00322   0.00000  -0.00323
-14.88722   0.00000  -0.04644   0.00000  -0.01518   0.00000  -0.01519   0.00000  -0.01519   0.00000  -0.01519   0.00000  -0.01519   0.00000  -0.01518   0.00000  -0.00093   0.00000  -0.21264   0.00000  -0.00093   0.00000  -0.21261   0.00000  -0.21264   0.00000  -0.00093   0.00000  -0.00095   0.00000  -0.21164   0.00000  -0.00095   0.00000  -0.21166   0.00000  -0.21164   0.00000  -0.00095   0.00000  -0.00252   0.00000  -0.00258   0.00000  -0.00251   0.00000   0.00152   0.00000   0.00145   0.00000   0.00150   0.00000  -0.00323   0.00000  -0.00323   0.00000  -0.00323   0.00000  -0.00362   0.00000  -0.00363   0.00000  -0.00362   0.00000  -0.04644   0.00000  -0.01518   0.00000  -0.01518   0.00000  -0.01518   0.00000  -0.01518   0.00000  -0.01518   0.00000  -0.01518   0.00000  -0.00095   0.00000  -0.21162   0.00000  -0.00094   0.00000  -0.21167   0.00000  -0.21164   0.00000  -0.00095   0.00000  -0.00093   0.00000  -0.21266   0.00000  -0.00093   0.00000  -0.21261   0.00000  -0.21265   0.00000  -0.00093   0.00000   0.00148   0.00000   0.00146   0.00000   0.00149   0.00000  -0.00256   0.00000  -0.00253   0.00000  -0.00257   0.00000  -0.00362   0.00000  -0.00362   0.00000  -0.00362   0.00000  -0.00323   0.00000  -0.00322   0.00000  -0.00323
-14.83709   0.00000  -0.04644   0.00000  -0.01518   0.00000  -0.01519   0.00000  -0.01519   0.00000  -0.01519   0.00000  -0.01519   0.00000  -0.01518   0.00000  -0.00093   0.00000  -0.21264   0.00000  -0.00093   0.00000  -0.21261   0.00000  -0.21264   0.00000  -0.00093   0.00000  -0.00095   0.00000  -0.21164   0.00000  -0.00095   0.00000  -0.21166   0.00000  -0.21164   0.00000  -0.00095   0.00000  -0.00252   0.00000  -0.00258   0.00000  -0.00251   0.00000   0.00152   0.00000   0.00145   0.00000   0.00150   0.00000  -0.00323   0.00000  -0.00323   0.00000  -0.00323   0.00000  -0.00362   0.00000  -0.00363   0.00000  -0.00362   0.00000  -0.04644   0.00000  -0.01518   0.00000  -0.01518   0.00000  -0.01518   0.00000  -0.01518   0.00000  -0.01518   0.00000  -0.01518   0.00000  -0.00095   0.00000  -0.21162   0.00000  -0.00094   0.00000  -0.21167   0.00000  -0.21164   0.00000  -0.00095   0.00000  -0.00093   0.00000  -0.21266   0.00000  -0.00093   0.00000  -0.21261   0.00000  -0.21265   0.00000  -0.00093   0.00000   0.00148   0.00000   0.00146   0.00000   0.00149   0.00000  -0.00256   0.00000  -0.00253   0.00000  -0.00257   0.00000  -0.00362   0.00000  -0.00362   0.00000  -0.00362   0.00000  -0.00323   0.00000  -0.00322   0.00000  -0.00323
-14.78697   0.00000  -0.04644   0.00000  -0.01518   0.00000  -0.01519   0.00000  -0.01519   0.00000  -0.01519   0.00000  -0.01519   0.00000  -0.01518   0.00000  -0.00093   0.00000  -0.21264   0.00000  -0.00093   0.00000  -0.21261   0.00000  -0.21264   0.00000  -0.00093   0.00000  -0.00095   0.00000  -0.21164   0.00000  -0.00095   0.00000  -0.21166   0.00000  -0.21164   0.00000  -0.00095   0.00000  -0.00252   0.00000  -0.00258   0.00000  -0.00251   0.00000   0.00152   0.00000   0.00145   0.00000   0.00150   0.00000  -0.00323   0.00000  -0.00323   0.00000  -0.00323   0.00000  -0.00362   0.00000  -0.00363   0.00000  -0.00362   0.00000  -0.04644   0.00000  -0.01518   0.00000  -0.01518   0.00000  -0.01518   0.00000  -0.01518   0.00000  -0.01518   0.00000  -0.01518   0.00000  -0.00095   0.00000  -0.21162   0.00000  -0.00094   0.00000  -0.21167   0.00000  -0.21164   0.00000  -0.00095   0.00000  -0.00093   0.00000  -0.21266   0.00000  -0.00093   0.00000  -0.21261   0.00000  -0.21265   0.00000  -0.00093   0.00000   0.00148   0.00000   0.00146   0.00000   0.00149   0.00000  -0.00256   0.00000  -0.00253   0.00000  -0.00257   0.00000  -0.00362   0.00000  -0.00362   0.00000  -0.00362   0.00000  -0.00323   0.00000  -0.00322   0.00000  -0.00323
-14.73684   0.00000  -0.04644   0.00000  -0.01518   0.00000  -0.01519   0.00000  -0.01519   0.00000  -0.01519   0.00000  -0.01519   0.00000  -0.01518   0.00000  -0.00093   0.00000  -0.21264   0.00000  -0.00093   0.00000  -0.21261   0.00000  -0.21264   0.00000  -0.00093   0.00000  -0.00095   0.00000  -0.21164   0.00000  -0.00095   0.00000  -0.21166   0.00000  -0.21164   0.00000  -0.00095   0.00000  -0.00252   0.00000  -0.00258   0.00000  -0.00251   0.00000   0.00152   0.00000   0.00145   0.00000   0.00150   0.00000  -0.00323   0.00000  -0.00323   0.00000  -0.00323   0.00000  -0.00362   0.00000  -0.00363   0.00000  -0.00362   0.00000  -0.04644   0.00000  -0.01518   0.00000  -0.01518   0.00000  -0.01518   0.00000  -0.01518   0.00000  -0.01518   0.00000  -0.01518   0.00000  -0.00095   0.00000  -0.21162   0.00000  -0.00094   0.00000  -0.21167   0.00000  -0.21164   0.00000  -0.00095   0.00000  -0.00093   0.00000  -0.21266   0.00000  -0.00093   0.00000  -0.21261   0.00000  -0.21265   0.00000  -0.00093   0.00000   0.00148   0.00000   0.00146   0.00000   0.00149   0.00000  -0.00256   0.00000  -0.00253   0.00000  -0.00257   0.00000  -0.00362   0.00000  -0.00362   0.00000  -0.00362   0.00000  -0.00323   0.00000  -0.00322   0.00000  -0.00323
-14.68672   0.00000  -0.04644   0.00000  -0.01518   0.00000  -0.01519   0.00000  -0.01519   0.00000  -0.01519   0.00000  -0.01519   0.00000  -0.01518   0.00000  -0.00093   0.00000  -0.21264   0.00000  -0.00093   0.00000  -0.21261   0.00000  -0.21264   0.00000  -0.00093   0.00000  -0.00095   0.00000  -0.21164   0.00000  -0.00095   0.00000  -0.21166   0.00000  -0.21164   0.00000  -0.00095   0.00000  -0.00252   0.00000  -0.00258   0.00000  -0.00251   0.00000   0.00152   0.00000   0.00145   0.00000   0.00150   0.00000  -0.00323   0.00000  -0.00323   0.00000  -0.00323   0.00000  -0.00362   0.00000  -0.00363   0.00000  -0.00362   0.00000  -0.04644   0.00000  -0.01518   0.00000  -0.01518   0.00000  -0.01518   0.00000  -0.01518   0.00000  -0.01518   0.00000  -0.01518   0.00000  -0.00095   0.00000  -0.21162   0.00000  -0.00094   0.00000  -0.21167   0.00000  -0.21164   0.00000  -0.00095   0.00000  -0.00093   0.00000  -0.21266   0.00000  -0.00093   0.00000  -0.21261   0.00000  -0.21265   0.00000  -0.00093   0.00000   0.00148   0.00000   0.00146   0.00000   0.00149   0.00000  -0.00256   0.00000  -0.00253   0.00000  -0.00257   0.00000  -0.00362   0.00000  -0.00362   0.00000  -0.00362   0.00000  -0.00323   0.00000  -0.00322   0.00000  -0.00323
-14.63659   0.00000  -0.04644   0.00000  -0.01518   0.00000  -0.01519   0.00000  -0.01519   0.00000  -0.01519   0.00000  -0.01519   0.00000  -0.01518   0.00000  -0.00093   0.00000  -0.21264   0.00000  -0.00093   0.00000  -0.21261   0.00000  -0.21264   0.00000  -0.00093   0.00000  -0.00095   0.00000  -0.21164   0.00000  -0.00095   0.00000  -0.21166   0.00000  -0.21164   0.00000  -0.00095   0.00000  -0.00252   0.00000  -0.00258   0.00000  -0.00251   0.00000   0.00152   0.00000   0.00145   0.00000   0.00150   0.00000  -0.00323   0.00000  -0.00323   0.00000  -0.00323   0.00000  -0.00362   0.00000  -0.00363   0.00000  -0.00362   0.00000  -0.04644   0.00000  -0.01518   0.00000  -0.01518   0.00000  -0.01518   0.00000  -0.01518   0.00000  -0.01518   0.00000  -0.01518   0.00000  -0.00095   0.00000  -0.21162   0.00000  -0.00094   0.00000  -0.21167   0.00000  -0.21164   0.00000  -0.00095   0.00000  -0.00093   0.00000  -0.21266   0.00000  -0.00093   0.00000  -0.21261   0.00000  -0.21265   0.00000  -0.00093   0.00000   0.00148   0.00000   0.00146   0.00000   0.00149   0.00000  -0.00256   0.00000  -0.00253   0.00000  -0.00257   0.00000  -0.00362   0.00000  -0.00362   0.00000  -0.00362   0.00000  -0.00323   0.00000  -0.00322   0.00000  -0.00323
-14.58647   0.00000  -0.04644   0.00000  -0.01518   0.00000  -0.01519   0.00000  -0.01519   0.00000  -0.01519   0.00000  -0.01519   0.00000  -0.01518   0.00000  -0.00093   0.00000  -0.21264   0.00000  -0.00093   0.00000  -0.21261   0.00000  -0.21264   0.00000  -0.00093   0.00000  -0.00095   0.00000  -0.21164   0.00000  -0.00095   0.00000  -0.21166   0.00000  -0.21164   0.00000  -0.00095   0.00000  -0.00252   0.00000  -0.00258   0.00000  -0.00251   0.00000   0.00152   0.00000   0.00145   0.00000   0.00150   0.00000  -0.00323   0.00000  -0.00323   0.00000  -0.00323   0.00000  -0.00362   0.00000  -0.00363   0.00000  -0.00362   0.00000  -0.04644   0.00000  -0.01518   0.00000  -0.01518   0.00000  -0.01518   0.00000  -0.01518   0.00000  -0.01518   0.00000  -0.01518   0.00000  -0.00095   0.00000  -0.21162   0.00000  -0.00094   0.00000  -0.21167   0.00000  -0.21164   0.00000  -0.00095   0.00000  -0.00093   0.00000  -0.21266   0.00000  -0.00093   0.00000  -0.21261   0.00000  -0.21265   0.00000  -0.00093   0.00000   0.00148   0.00000   0.00146   0.00000   0.00149   0.00000  -0.00256   0.00000  -0.00253   0.00000  -0.00257   0.00000  -0.00362   0.00000  -0.00362   0.00000  -0.00362   0.00000  -0.00323   0.00000  -0.00322   0.00000  -0.00323
-14.53634   0.00000  -0.04644   0.00000  -0.01518   0.00000  -0.01519   0.00000  -0.01519   0.00000  -0.01519   0.00000  -0.01519   0.00000  -0.01518   0.00000  -0.00093   0.00000  -0.21264   0.00000  -0.00093   0.00000  -0.21261   0.00000  -0.21264   0.00000  -0.00093   0.00000  -0.00095   0.00000  -0.21164   0.00000  -0.00095   0.00000  -0.21166   0.00000  -0.21164   0.00000  -0.00095   0.00000  -0.00252   0.00000  -0.00258   0.00000  -0.00251   0.00000   0.00152   0.00000   0.00145   0.00000   0.00150   0.00000  -0.00323   0.00000  -0.00323   0.00000  -0.00323   0.00000  -0.00362   0.00000  -0.00363   0.00000  -0.00362   0.00000  -0.04644   0.00000  -0.01518   0.00000  -0.01518   0.00000  -0.01518   0.00000  -0.01518   0.00000  -0.01518   0.00000  -0.01518   0.00000  -0.00095   0.00000  -0.21162   0.00000  -0.00094   0.00000  -0.21167   0.00000  -0.21164   0.00000  -0.00095   0.00000  -0.00093   0.00000  -0.21266   0.00000  -0.00093   0.00000  -0.21261   0.00000  -0.21265   0.00000  -0.00093   0.00000   0.00148   0.00000   0.00146   0.00000   0.00149   0.00000  -0.00256   0.00000  -0.00253   0.00000  -0.00257   0.00000  -0.00362   0.00000  -0.00362   0.00000  -0.00362   0.00000  -0.00323   0.00000  -0.00322   0.00000  -0.00323
-14.48622   0.00000  -0.04644   0.00000  -0.01518   0.00000  -0.01519   0.00000  -0.01519   0.00000  -0.01519   0.00000  -0.01519   0.00000  -0.01518   0.00000  -0.00093   0.00000  -0.21264   0.00000  -0.00093   0.00000  -0.21261   0.00000  -0.21264   0.00000  -0.00093   0.00000  -0.00095   0.00000  -0.21164   0.00000  -0.00095   0.00000  -0.21166   0.00000  -0.21164   0.00000  -0.00095   0.00000  -0.00252   0.00000  -0.00258   0.00000  -0.00251   0.00000   0.00152   0.00000   0.00145   0.00000   0.00150   0.00000  -0.00323   0.00000  -0.00323   0.00000  -0.00323   0.00000  -0.00362   0.00000  -0.00363   0.00000  -0.00362   0.00000  -0.04644   0.00000  -0.01518   0.00000  -0.01518   0.00000  -0.01518   0.00000  -0.01518   0.00000  -0.01518   0.00000  -0.01518   0.00000  -0.00095   0.00000  -0.21162   0.00000  -0.00094   0.00000  -0.21167   0.00000  -0.21164   0.00000  -0.00095   0.00000  -0.00093   0.00000  -0.21266   0.00000  -0.00093   0.00000  -0.21261   0.00000  -0.21265   0.00000  -0.00093   0.00000   0.00148   0.00000   0.00146   0.00000   0.00149   0.00000  -0.00256   0.00000  -0.00253   0.00000  -0.00257   0.00000  -0.00362   0.00000  -0.00362   0.00000  -0.00362   0.00000  -0.00323   0.00000  -0.00322   0.00000  -0.00323
-14.43609   0.00000  -0.04644   0.00000  -0.01518   0.00000  -0.01519   0.00000  -0.01519   0.00000  -0.01519   0.00000  -0.01519   0.00000  -0.01518   0.00000  -0.00093   0.00000  -0.21264   0.00000  -0.00093   0.00000  -0.21261   0.00000  -0.21264   0.00000  -0.00093   0.00000  -0.00095   0.00000  -0.21164   0.00000  -0.00095   0.00000  -0.21166   0.00000  -0.21164   0.00000  -0.00095   0.00000  -0.00252   0.00000  -0.00258   0.00000  -0.00251   0.00000   0.00152   0.00000   0.00145   0.00000   0.00150   0.00000  -0.00323   0.00000  -0.00323   0.00000  -0.00323   0.00000  -0.00362   0.00000  -0.00363   0.00000  -0.00362   0.00000  -0.04644   0.00000  -0.01518   0.00000  -0.01518   0.00000  -0.01518   0.00000  -0.01518   0.00000  -0.01518   0.00000  -0.01518   0.00000  -0.00095   0.00000  -0.21162   0.00000  -0.00094   0.00000  -0.21167   0.00000  -0.21164   0.00000  -0.00095   0.00000  -0.00093   0.00000  -0.21266   0.00000  -0.00093   0.00000  -0.21261   0.00000  -0.21265   0.00000  -0.00093   0.00000   0.00148   0.00000   0.00146   0.00000   0.00149   0.00000  -0.00256   0.00000  -0.00253   0.00000  -0.00257   0.00000  -0.00362   0.00000  -0.00362   0.00000  -0.00362   0.00000  -0.00323   0.00000  -0.00322   0.00000  -0.00323
-14.38596   0.00000  -0.04644   0.00000  -0.01518   0.00000  -0.01519   0.00000  -0.01519   0.00000  -0.01519   0.00000  -0.01519   0.00000  -0.01518   0.00000  -0.00093   0.00000  -0.21264   0.00000  -0.00093   0.00000  -0.21261   0.00000  -0.21264   0.00000  -0.00093   0.00000  -0.00095   0.00000  -0.21164   0.00000  -0.00095   0.00000  -0.21166   0.00000  -0.21164   0.00000  -0.00095   0.00000  -0.00252   0.00000  -0.00258   0.00000  -0.00251   0.00000   0.00152   0.00000   0.00145   0.00000   0.00150   0.00000  -0.00323   0.00000  -0.00323   0.00000  -0.00323   0.00000  -0.00362   0.00000  -0.00363   0.00000  -0.00362   0.00000  -0.04644   0.00000  -0.01518   0.00000  -0.01518   0.00000  -0.01518   0.00000  -0.01518   0.00000  -0.01518   0.00000  -0.01518   0.00000  -0.00095   0.00000  -0.21162   0.00000  -0.00094   0.00000  -0.21167   0.00000  -0.21164   0.00000  -0.00095   0.00000  -0.00093   0.00000  -0.21266   0.00000  -0.00093   0.00000  -0.21261   0.00000  -0.21265   0.00000  -0.00093   0.00000   0.00148   0.00000   0.00146   0.00000   0.00149   0.00000  -0.00256   0.00000  -0.00253   0.00000  -0.00257   0.00000  -0.00362   0.00000  -0.00362   0.00000  -0.00362   0.00000  -0.00323   0.00000  -0.00322   0.00000  -0.00323
-14.33584   0.00000  -0.04644   0.00000  -0.01518   0.00000  -0.01519   0.00000  -0.01519   0.00000  -0.01519   0.00000  -0.01519   0.00000  -0.01518   0.00000  -0.00093   0.00000  -0.21264   0.00000  -0.00093   0.00000  -0.21261   0.00000  -0.21264   0.00000  -0.00093   0.00000  -0.00095   0.00000  -0.21164   0.00000  -0.00095   0.00000  -0.21166   0.00000  -0.21164   0.00000  -0.00095   0.00000  -0.00252   0.00000  -0.00258   0.00000  -0.00251   0.00000   0.00152   0.00000   0.00145   0.00000   0.00150   0.00000  -0.00323   0.00000  -0.00323   0.00000  -0.00323   0.00000  -0.00362   0.00000  -0.00363   0.00000  -0.00362   0.00000  -0.04644   0.00000  -0.01518   0.00000  -0.01518   0.00000  -0.01518   0.00000  -0.01518   0.00000  -0.01518   0.00000  -0.01518   0.00000  -0.00095   0.00000  -0.21162   0.00000  -0.00094   0.00000  -0.21167   0.00000  -0.21164   0.00000  -0.00095   0.00000  -0.00093   0.00000  -0.21266   0.00000  -0.00093   0.00000  -0.21261   0.00000  -0.21265   0.00000  -0.00093   0.00000   0.00148   0.00000   0.00146   0.00000   0.00149   0.00000  -0.00256   0.00000  -0.00253   0.00000  -0.00257   0.00000  -0.00362   0.00000  -0.00362   0.00000  -0.00362   0.00000  -0.00323   0.00000  -0.00322   0.00000  -0.00323
-14.28571   0.00000  -0.04644   0.00000  -0.01518   0.00000  -0.01519   0.00000  -0.01519   0.00000  -0.01519   0.00000  -0.01519   0.00000  -0.01518   0.00000  -0.00093   0.00000  -0.21264   0.00000  -0.00093   0.00000  -0.21261   0.00000  -0.21264   0.00000  -0.00093   0.00000  -0.00095   0.00000  -0.21164   0.00000  -0.00095   0.00000  -0.21166   0.00000  -0.21164   0.00000  -0.00095   0.00000  -0.00252   0.00000  -0.00258   0.00000  -0.00251   0.00000   0.00152   0.00000   0.00145   0.00000   0.00150   0.00000  -0.00323   0.00000  -0.00323   0.00000  -0.00323   0.00000  -0.00362   0.00000  -0.00363   0.00000  -0.00362   0.00000  -0.04644   0.00000  -0.01518   0.00000  -0.01518   0.00000  -0.01518   0.00000  -0.01518   0.00000  -0.01518   0.00000  -0.01518   0.00000  -0.00095   0.00000  -0.21162   0.00000  -0.00094   0.00000  -0.21167   0.00000  -0.21164   0.00000  -0.00095   0.00000  -0.00093   0.00000  -0.21266   0.00000  -0.00093   0.00000  -0.21261   0.00000  -0.21265   0.00000  -0.00093   0.00000   0.00148   0.00000   0.00146   0.00000   0.00149   0.00000  -0.00256   0.00000  -0.00253   0.00000  -0.00257   0.00000  -0.00362   0.00000  -0.00362   0.00000  -0.00362   0.00000  -0.00323   0.00000  -0.00322   0.00000  -0.00323
-14.23559   0.00000  -0.04644   0.00000  -0.01518   0.00000  -0.01519   0.00000  -0.01519   0.00000  -0.01519   0.00000  -0.01519   0.00000  -0.01518   0.00000  -0.00093   0.00000  -0.21264   0.00000  -0.00093   0.00000  -0.21261   0.00000  -0.21264   0.00000  -0.00093   0.00000  -0.00095   0.00000  -0.21164   0.00000  -0.00095   0.00000  -0.21166   0.00000  -0.21164   0.00000  -0.00095   0.00000  -0.00252   0.00000  -0.00258   0.00000  -0.00251   0.00000   0.00152   0.00000   0.00145   0.00000   0.00150   0.00000  -0.00323   0.00000  -0.00323   0.00000  -0.00323   0.00000  -0.00362   0.00000  -0.00363   0.00000  -0.00362   0.00000  -0.04644   0.00000  -0.01518   0.00000  -0.01518   0.00000  -0.01518   0.00000  -0.01518   0.00000  -0.01518   0.00000  -0.01518   0.00000  -0.00095   0.00000  -0.21162   0.00000  -0.00094   0.00000  -0.21167   0.00000  -0.21164   0.00000  -0.00095   0.00000  -0.00093   0.00000  -0.21266   0.00000  -0.00093   0.00000  -0.21261   0.00000  -0.21265   0.00000  -0.00093   0.00000   0.00148   0.00000   0.00146   0.00000   0.00149   0.00000  -0.00256   0.00000  -0.00253   0.00000  -0.00257   0.00000  -0.00362   0.00000  -0.00362   0.00000  -0.00362   0.00000  -0.00323   0.00000  -0.00322   0.00000  -0.00323
-14.18546   0.00000  -0.04644   0.00000  -0.01518   0.00000  -0.01519   0.00000  -0.01519   0.00000  -0.01519   0.00000  -0.01519   0.00000  -0.01518   0.00000  -0.00093   0.00000  -0.21264   0.00000  -0.00093   0.00000  -0.21261   0.00000  -0.21264   0.00000  -0.00093   0.00000  -0.00095   0.00000  -0.21164   0.00000  -0.00095   0.00000  -0.21166   0.00000  -0.21164   0.00000  -0.00095   0.00000  -0.00252   0.00000  -0.00258   0.00000  -0.00251   0.00000   0.00152   0.00000   0.00145   0.00000   0.00150   0.00000  -0.00323   0.00000  -0.00323   0.00000  -0.00323   0.00000  -0.00362   0.00000  -0.00363   0.00000  -0.00362   0.00000  -0.04644   0.00000  -0.01518   0.00000  -0.01518   0.00000  -0.01518   0.00000  -0.01518   0.00000  -0.01518   0.00000  -0.01518   0.00000  -0.00095   0.00000  -0.21162   0.00000  -0.00094   0.00000  -0.21167   0.00000  -0.21164   0.00000  -0.00095   0.00000  -0.00093   0.00000  -0.21266   0.00000  -0.00093   0.00000  -0.21261   0.00000  -0.21265   0.00000  -0.00093   0.00000   0.00148   0.00000   0.00146   0.00000   0.00149   0.00000  -0.00256   0.00000  -0.00253   0.00000  -0.00257   0.00000  -0.00362   0.00000  -0.00362   0.00000  -0.00362   0.00000  -0.00323   0.00000  -0.00322   0.00000  -0.00323
-14.13534   0.00000  -0.04644   0.00000  -0.01518   0.00000  -0.01519   0.00000  -0.01519   0.00000  -0.01519   0.00000  -0.01519   0.00000  -0.01518   0.00000  -0.00093   0.00000  -0.21264   0.00000  -0.00093   0.00000  -0.21261   0.00000  -0.21264   0.00000  -0.00093   0.00000  -0.00095   0.00000  -0.21164   0.00000  -0.00095   0.00000  -0.21166   0.00000  -0.21164   0.00000  -0.00095   0.00000  -0.00252   0.00000  -0.00258   0.00000  -0.00251   0.00000   0.00152   0.00000   0.00145   0.00000   0.00150   0.00000  -0.00323   0.00000  -0.00323   0.00000  -0.00323   0.00000  -0.00362   0.00000  -0.00363   0.00000  -0.00362   0.00000  -0.04644   0.00000  -0.01518   0.00000  -0.01518   0.00000  -0.01518   0.00000  -0.01518   0.00000  -0.01518   0.00000  -0.01518   0.00000  -0.00095   0.00000  -0.21162   0.00000  -0.00094   0.00000  -0.21167   0.00000  -0.21164   0.00000  -0.00095   0.00000  -0.00093   0.00000  -0.21266   0.00000  -0.00093   0.00000  -0.21261   0.00000  -0.21265   0.00000  -0.00093   0.00000   0.00148   0.00000   0.00146   0.00000   0.00149   0.00000  -0.00256   0.00000  -0.00253   0.00000  -0.00257   0.00000  -0.00362   0.00000  -0.00362   0.00000  -0.00362   0.00000  -0.00323   0.00000  -0.00322   0.00000  -0.00323
-14.08521   0.00000  -0.04644   0.00000  -0.01518   0.00000  -0.01519   0.00000  -0.01519   0.00000  -0.01519   0.00000  -0.01519   0.00000  -0.01518   0.00000  -0.00093   0.00000  -0.21264   0.00000  -0.00093   0.00000  -0.21261   0.00000  -0.21264   0.00000  -0.00093   0.00000  -0.00095   0.00000  -0.21164   0.00000  -0.00095   0.00000  -0.21166   0.00000  -0.21164   0.00000  -0.00095   0.00000  -0.00252   0.00000  -0.00258   0.00000  -0.00251   0.00000   0.00152   0.00000   0.00145   0.00000   0.00150   0.00000  -0.00323   0.00000  -0.00323   0.00000  -0.00323   0.00000  -0.00362   0.00000  -0.00363   0.00000  -0.00362   0.00000  -0.04644   0.00000  -0.01518   0.00000  -0.01518   0.00000  -0.01518   0.00000  -0.01518   0.00000  -0.01518   0.00000  -0.01518   0.00000  -0.00095   0.00000  -0.21162   0.00000  -0.00094   0.00000  -0.21167   0.00000  -0.21164   0.00000  -0.00095   0.00000  -0.00093   0.00000  -0.21266   0.00000  -0.00093   0.00000  -0.21261   0.00000  -0.21265   0.00000  -0.00093   0.00000   0.00148   0.00000   0.00146   0.00000   0.00149   0.00000  -0.00256   0.00000  -0.00253   0.00000  -0.00257   0.00000  -0.00362   0.00000  -0.00362   0.00000  -0.00362   0.00000  -0.00323   0.00000  -0.00322   0.00000  -0.00323
-14.03509   0.00000  -0.04644   0.00000  -0.01518   0.00000  -0.01519   0.00000  -0.01519   0.00000  -0.01519   0.00000  -0.01519   0.00000  -0.01518   0.00000  -0.00093   0.00000  -0.21264   0.00000  -0.00093   0.00000  -0.21261   0.00000  -0.21264   0.00000  -0.00093   0.00000  -0.00095   0.00000  -0.21164   0.00000  -0.00095   0.00000  -0.21166   0.00000  -0.21164   0.00000  -0.00095   0.00000  -0.00252   0.00000  -0.00258   0.00000  -0.00251   0.00000   0.00152   0.00000   0.00145   0.00000   0.00150   0.00000  -0.00323   0.00000  -0.00323   0.00000  -0.00323   0.00000  -0.00362   0.00000  -0.00363   0.00000  -0.00362   0.00000  -0.04644   0.00000  -0.01518   0.00000  -0.01518   0.00000  -0.01518   0.00000  -0.01518   0.00000  -0.01518   0.00000  -0.01518   0.00000  -0.00095   0.00000  -0.21162   0.00000  -0.00094   0.00000  -0.21167   0.00000  -0.21164   0.00000  -0.00095   0.00000  -0.00093   0.00000  -0.21266   0.00000  -0.00093   0.00000  -0.21261   0.00000  -0.21265   0.00000  -0.00093   0.00000   0.00148   0.00000   0.00146   0.00000   0.00149   0.00000  -0.00256   0.00000  -0.00253   0.00000  -0.00257   0.00000  -0.00362   0.00000  -0.00362   0.00000  -0.00362   0.00000  -0.00323   0.00000  -0.00322   0.00000  -0.00323
-13.98496   0.00000  -0.04644   0.00000  -0.01518   0.00000  -0.01519   0.00000  -0.01519   0.00000  -0.01519   0.00000  -0.01519   0.00000  -0.01518   0.00000  -0.00093   0.00000  -0.21264   0.00000  -0.00093   0.00000  -0.21261   0.00000  -0.21264   0.00000  -0.00093   0.00000  -0.00095   0.00000  -0.21164   0.00000  -0.00095   0.00000  -0.21166   0.00000  -0.21164   0.00000  -0.00095   0.00000  -0.00252   0.00000  -0.00258   0.00000  -0.00251   0.00000   0.00152   0.00000   0.00145   0.00000   0.00150   0.00000  -0.00323   0.00000  -0.00323   0.00000  -0.00323   0.00000  -0.00362   0.00000  -0.00363   0.00000  -0.00362   0.00000  -0.04644   0.00000  -0.01518   0.00000  -0.01518   0.00000  -0.01518   0.00000  -0.01518   0.00000  -0.01518   0.00000  -0.01518   0.00000  -0.00095   0.00000  -0.21162   0.00000  -0.00094   0.00000  -0.21167   0.00000  -0.21164   0.00000  -0.00095   0.00000  -0.00093   0.00000  -0.21266   0.00000  -0.00093   0.00000  -0.21261   0.00000  -0.21265   0.00000  -0.00093   0.00000   0.00148   0.00000   0.00146   0.00000   0.00149   0.00000  -0.00256   0.00000  -0.00253   0.00000  -0.00257   0.00000  -0.00362   0.00000  -0.00362   0.00000  -0.00362   0.00000  -0.00323   0.00000  -0.00322   0.00000  -0.00323