ESCALE ; pCOOP file generated by LOBSTER. Energy is shifted such that the Fermi level lies at 0 eV.
       157          2        401  -9.41849e+00   1.06316e+01   5.61910e+00 
Average
No.1:Ni1->Ni1(3.0960512137019323)
No.2:Ni1->Ni1(3.0960512137492255)
No.3:Ni1->Ni1(3.0960512137010578)
No.4:Ni1->Ni1(3.0960512137010578)
No.5:Ni1->Ni1(3.0960512137492255)
No.6:Ni1->Ni1(3.0960512137019323)
No.7:Ni1->N3(3.7320471979927961)
No.8:Ni1->N3(2.08390102152979)
No.9:Ni1->N3(3.7320472776667111)
No.10:Ni1->N3(2.0839010192294474)
No.11:Ni1->N3(2.083901090502978)
No.12:Ni1->N3(3.7320472750992306)
No.13:Ni1->N4(3.7320472726767222)
No.14:Ni1->N4(2.0839009481704331)
No.15:Ni1->N4(2.0839009458939444)
No.16:Ni1->N4(3.7320471211378892)
No.17:Ni1->N4(2.0839008102001917)
No.18:Ni1->N4(3.7320471185171296)
No.19:Ni1->N5(3.9689861050366879)
No.20:Ni1->N5(3.9689861038414262)
No.21:Ni1->N5(3.9689860325959434)
No.22:Ni1->N6(3.9689858216009384)
No.23:Ni1->N6(3.9689858203931521)
No.24:Ni1->N6(3.9689858578150505)
No.25:Ni1->C7(2.918810382304784)
No.26:Ni1->C7(2.9188103806624417)
No.27:Ni1->C7(2.9188104315485783)
No.28:Ni1->C8(2.9188104315485797)
No.29:Ni1->C8(2.9188104299232682)
No.30:Ni1->C8(2.9188103330439596)
No.31:Ni2->Ni2(3.0960512137019323)
No.32:Ni2->Ni2(3.0960512137492255)
No.33:Ni2->Ni2(3.0960512137010578)
No.34:Ni2->Ni2(3.0960512137010578)
No.35:Ni2->Ni2(3.0960512137492255)
No.36:Ni2->Ni2(3.0960512137019323)
No.37:Ni2->N3(3.9689858216009384)
No.38:Ni2->N3(3.9689858203931521)
No.39:Ni2->N3(3.9689858578150505)
No.40:Ni2->N4(3.9689861050366879)
No.41:Ni2->N4(3.9689861038414262)
No.42:Ni2->N4(3.9689860325959434)
No.43:Ni2->N5(3.7320472726767222)
No.44:Ni2->N5(2.0839009481704331)
No.45:Ni2->N5(2.0839009458939444)
No.46:Ni2->N5(3.7320471211378892)
No.47:Ni2->N5(2.0839008102001917)
No.48:Ni2->N5(3.7320471185171296)
No.49:Ni2->N6(3.7320471979927961)
No.50:Ni2->N6(2.08390102152979)
No.51:Ni2->N6(3.7320472776667111)
No.52:Ni2->N6(2.0839010192294474)
No.53:Ni2->N6(2.083901090502978)
No.54:Ni2->N6(3.7320472750992306)
No.55:Ni2->C7(2.918810382304784)
No.56:Ni2->C7(2.9188103806624417)
No.57:Ni2->C7(2.9188104315485783)
No.58:Ni2->C8(2.9188104315485797)
No.59:Ni2->C8(2.9188104299232682)
No.60:Ni2->C8(2.9188103330439596)
No.61:N3->N3(3.0960512137019323)
No.62:N3->N3(3.0960512137492255)
No.63:N3->N3(3.0960512137010578)
No.64:N3->N3(3.0960512137010578)
No.65:N3->N3(3.0960512137492255)
No.66:N3->N3(3.0960512137019323)
No.67:N3->N4(2.790168527019194)
No.68:N3->N4(2.7901684273903173)
No.69:N3->N4(2.7901683724053261)
No.70:N3->N6(3.9621585992573243)
No.71:N3->N6(3.9621585992942792)
No.72:N3->N6(3.9621585992566408)
No.73:N3->N6(2.4724820824029345)
No.74:N3->N6(3.9621585992566408)
No.75:N3->N6(3.9621585992942792)
No.76:N3->N6(3.9621585992573243)
No.77:N3->C7(3.3337403962840444)
No.78:N3->C7(3.3337403963279653)
No.79:N3->C7(3.3337403962832322)
No.80:N3->C7(1.2362410412014673)
No.81:N3->C7(3.3337403962832322)
No.82:N3->C7(3.3337403963279653)
No.83:N3->C7(3.3337403962840444)
No.84:N3->C8(3.8223514809970052)
No.85:N3->C8(3.8223514082717847)
No.86:N3->C8(3.8223513681348722)
No.87:N4->N4(3.0960512137019323)
No.88:N4->N4(3.0960512137492255)
No.89:N4->N4(3.0960512137010578)
No.90:N4->N4(3.0960512137010578)
No.91:N4->N4(3.0960512137492255)
No.92:N4->N4(3.0960512137019323)
No.93:N4->N5(3.962158944832709)
No.94:N4->N5(3.9621589448696639)
No.95:N4->N5(3.9621589448320256)
No.96:N4->N5(2.4724826361882983)
No.97:N4->N5(3.9621589448320256)
No.98:N4->N5(3.9621589448696639)
No.99:N4->N5(3.962158944832709)
No.100:N4->C7(3.8223511233849909)
No.101:N4->C7(3.8223511635219061)
No.102:N4->C7(3.8223512362471315)
No.103:N4->C8(3.3337404989633446)
No.104:N4->C8(3.3337404990072654)
No.105:N4->C8(3.3337404989625319)
No.106:N4->C8(1.2362413180941492)
No.107:N4->C8(3.3337404989625319)
No.108:N4->C8(3.3337404990072654)
No.109:N4->C8(3.3337404989633446)
No.110:N5->N5(3.0960512137019323)
No.111:N5->N5(3.0960512137492255)
No.112:N5->N5(3.0960512137010578)
No.113:N5->N5(3.0960512137010578)
No.114:N5->N5(3.0960512137492255)
No.115:N5->N5(3.0960512137019323)
No.116:N5->N6(2.7901683724053257)
No.117:N5->N6(2.7901684273903169)
No.118:N5->N6(2.790168527019194)
No.119:N5->C7(3.8223511233849909)
No.120:N5->C7(3.8223511635219061)
No.121:N5->C7(3.8223512362471315)
No.122:N5->C8(3.3337404989633446)
No.123:N5->C8(3.3337404990072654)
No.124:N5->C8(3.3337404989625319)
No.125:N5->C8(1.2362413180941492)
No.126:N5->C8(3.3337404989625319)
No.127:N5->C8(3.3337404990072654)
No.128:N5->C8(3.3337404989633446)
No.129:N6->N6(3.0960512137019323)
No.130:N6->N6(3.0960512137492255)
No.131:N6->N6(3.0960512137010578)
No.132:N6->N6(3.0960512137010578)
No.133:N6->N6(3.0960512137492255)
No.134:N6->N6(3.0960512137019323)
No.135:N6->C7(3.3337403962840444)
No.136:N6->C7(3.3337403963279653)
No.137:N6->C7(3.3337403962832322)
No.138:N6->C7(1.2362410412014673)
No.139:N6->C7(3.3337403962832322)
No.140:N6->C7(3.3337403963279653)
No.141:N6->C7(3.3337403962840444)
No.142:N6->C8(3.8223514809970047)
No.143:N6->C8(3.8223514082717842)
No.144:N6->C8(3.8223513681348713)
No.145:C7->C7(3.0960512137019323)
No.146:C7->C7(3.0960512137492255)
No.147:C7->C7(3.0960512137010578)
No.148:C7->C7(3.0960512137010578)
No.149:C7->C7(3.0960512137492255)
No.150:C7->C7(3.0960512137019323)
No.151:C8->C8(3.0960512137019323)
No.152:C8->C8(3.0960512137492255)
No.153:C8->C8(3.0960512137010578)
No.154:C8->C8(3.0960512137010578)
No.155:C8->C8(3.0960512137492255)
No.156:C8->C8(3.0960512137019323)
-15.03759   0.00000   0.00510   0.00000   0.00005   0.00000   0.00005   0.00000   0.00005   0.00000   0.00005   0.00000   0.00005   0.00000   0.00005   0.00000   0.00004   0.00000  -0.00065   0.00000   0.00004   0.00000  -0.00065   0.00000  -0.00065   0.00000   0.00004   0.00000   0.00004   0.00000  -0.00065   0.00000  -0.00066   0.00000   0.00004   0.00000  -0.00065   0.00000   0.00004   0.00000   0.00006   0.00000   0.00006   0.00000   0.00006   0.00000   0.00006   0.00000   0.00006   0.00000   0.00006   0.00000  -0.00056   0.00000  -0.00056   0.00000  -0.00056   0.00000  -0.00056   0.00000  -0.00056   0.00000  -0.00056   0.00000   0.00005   0.00000   0.00005   0.00000   0.00005   0.00000   0.00005   0.00000   0.00005   0.00000   0.00005   0.00000   0.00007   0.00000   0.00007   0.00000   0.00007   0.00000   0.00007   0.00000   0.00007   0.00000   0.00007   0.00000   0.00005   0.00000  -0.00062   0.00000  -0.00062   0.00000   0.00005   0.00000  -0.00062   0.00000   0.00005   0.00000   0.00005   0.00000  -0.00062   0.00000   0.00005   0.00000  -0.00062   0.00000  -0.00062   0.00000   0.00005   0.00000  -0.00053   0.00000  -0.00053   0.00000  -0.00053   0.00000  -0.00053   0.00000  -0.00053   0.00000  -0.00053   0.00000   0.00016   0.00000   0.00017   0.00000   0.00017   0.00000   0.00017   0.00000   0.00017   0.00000   0.00016   0.00000   0.00080   0.00000   0.00080   0.00000   0.00080   0.00000  -0.00001   0.00000  -0.00001   0.00000  -0.00001   0.00000   0.01031   0.00000  -0.00001   0.00000  -0.00001   0.00000  -0.00001   0.00000  -0.00026   0.00000  -0.00026   0.00000  -0.00026   0.00000   0.19693   0.00000  -0.00026   0.00000  -0.00026   0.00000  -0.00026   0.00000   0.00025   0.00000   0.00025   0.00000   0.00025   0.00000   0.00017   0.00000   0.00017   0.00000   0.00016   0.00000   0.00016   0.00000   0.00017   0.00000   0.00017   0.00000  -0.00001   0.00000  -0.00001   0.00000  -0.00001   0.00000   0.01031   0.00000  -0.00001   0.00000  -0.00001   0.00000  -0.00001   0.00000   0.00025   0.00000   0.00025   0.00000   0.00025   0.00000  -0.00026   0.00000  -0.00026   0.00000  -0.00026   0.00000   0.19695   0.00000  -0.00026   0.00000  -0.00026   0.00000  -0.00026   0.00000   0.00020   0.00000   0.00020   0.00000   0.00020   0.00000   0.00020   0.00000   0.00020   0.00000   0.00020   0.00000   0.00072   0.00000   0.00072   0.00000   0.00072   0.00000   0.00021   0.00000   0.00022   0.00000   0.00022   0.00000  -0.00026   0.00000  -0.00026   0.00000  -0.00026   0.00000   0.19957   0.00000  -0.00026   0.00000  -0.00026   0.00000  -0.00026   0.00000   0.00020   0.00000   0.00020   0.00000   0.00020   0.00000   0.00020   0.00000   0.00020   0.00000   0.00020   0.00000  -0.00026   0.00000  -0.00026   0.00000  -0.00026   0.00000   0.19960   0.00000  -0.00026   0.00000  -0.00026   0.00000  -0.00026   0.00000   0.00022   0.00000   0.00022   0.00000   0.00022   0.00000  -0.00094   0.00000  -0.00094   0.00000  -0.00094   0.00000  -0.00094   0.00000  -0.00094   0.00000  -0.00094   0.00000  -0.00094   0.00000  -0.00094   0.00000  -0.00094   0.00000  -0.00094   0.00000  -0.00094   0.00000  -0.00094   0.00000   0.00510   0.00000   0.00005   0.00000   0.00005   0.00000   0.00005   0.00000   0.00005   0.00000   0.00005   0.00000   0.00005   0.00000   0.00005   0.00000  -0.00062   0.00000   0.00005   0.00000  -0.00062   0.00000  -0.00062   0.00000   0.00005   0.00000   0.00005   0.00000  -0.00062   0.00000  -0.00062   0.00000   0.00005   0.00000  -0.00062   0.00000   0.00005   0.00000   0.00007   0.00000   0.00007   0.00000   0.00007   0.00000   0.00007   0.00000   0.00007   0.00000   0.00007   0.00000  -0.00053   0.00000  -0.00053   0.00000  -0.00053   0.00000  -0.00053   0.00000  -0.00053   0.00000  -0.00053   0.00000   0.00005   0.00000   0.00005   0.00000   0.00005   0.00000   0.00005   0.00000   0.00005   0.00000   0.00005   0.00000   0.00006   0.00000   0.00006   0.00000   0.00006   0.00000   0.00006   0.00000   0.00006   0.00000   0.00006   0.00000   0.00004   0.00000  -0.00065   0.00000  -0.00066   0.00000   0.00004   0.00000  -0.00065   0.00000   0.00004   0.00000   0.00004   0.00000  -0.00065   0.00000   0.00004   0.00000  -0.00065   0.00000  -0.00065   0.00000   0.00004   0.00000  -0.00056   0.00000  -0.00056   0.00000  -0.00056   0.00000  -0.00056   0.00000  -0.00056   0.00000  -0.00056   0.00000   0.00020   0.00000   0.00020   0.00000   0.00020   0.00000   0.00020   0.00000   0.00020   0.00000   0.00020   0.00000   0.00072   0.00000   0.00072   0.00000   0.00072   0.00000  -0.00001   0.00000  -0.00001   0.00000  -0.00001   0.00000   0.01031   0.00000  -0.00001   0.00000  -0.00001   0.00000  -0.00001   0.00000  -0.00026   0.00000  -0.00026   0.00000  -0.00026   0.00000   0.19959   0.00000  -0.00026   0.00000  -0.00026   0.00000  -0.00026   0.00000   0.00021   0.00000   0.00022   0.00000   0.00022   0.00000   0.00020   0.00000   0.00020   0.00000   0.00020   0.00000   0.00020   0.00000   0.00020   0.00000   0.00020   0.00000  -0.00001   0.00000  -0.00001   0.00000  -0.00001   0.00000   0.01031   0.00000  -0.00001   0.00000  -0.00001   0.00000  -0.00001   0.00000   0.00022   0.00000   0.00022   0.00000   0.00022   0.00000  -0.00026   0.00000  -0.00026   0.00000  -0.00026   0.00000   0.19957   0.00000  -0.00026   0.00000  -0.00026   0.00000  -0.00026   0.00000   0.00017   0.00000   0.00017   0.00000   0.00017   0.00000   0.00017   0.00000   0.00017   0.00000   0.00017   0.00000   0.00080   0.00000   0.00080   0.00000   0.00080   0.00000   0.00025   0.00000   0.00025   0.00000   0.00025   0.00000  -0.00026   0.00000  -0.00026   0.00000  -0.00026   0.00000   0.19695   0.00000  -0.00026   0.00000  -0.00026   0.00000  -0.00026   0.00000   0.00016   0.00000   0.00017   0.00000   0.00017   0.00000   0.00017   0.00000   0.00017   0.00000   0.00016   0.00000  -0.00026   0.00000  -0.00026   0.00000  -0.00026   0.00000   0.19693   0.00000  -0.00026   0.00000  -0.00026   0.00000  -0.00026   0.00000   0.00025   0.00000   0.00025   0.00000   0.00025   0.00000  -0.00094   0.00000  -0.00094   0.00000  -0.00094   0.00000  -0.00094   0.00000  -0.00094   0.00000  -0.00094   0.00000  -0.00094   0.00000  -0.00094   0.00000  -0.00094   0.00000  -0.00094   0.00000  -0.00094   0.00000  -0.00094
-14.98747   0.00000   0.00510   0.00000   0.00005   0.00000   0.00005   0.00000   0.00005   0.00000   0.00005   0.00000   0.00005   0.00000   0.00005   0.00000   0.00004   0.00000  -0.00065   0.00000   0.00004   0.00000  -0.00065   0.00000  -0.00065   0.00000   0.00004   0.00000   0.00004   0.00000  -0.00065   0.00000  -0.00066   0.00000   0.00004   0.00000  -0.00065   0.00000   0.00004   0.00000   0.00006   0.00000   0.00006   0.00000   0.00006   0.00000   0.00006   0.00000   0.00006   0.00000   0.00006   0.00000  -0.00056   0.00000  -0.00056   0.00000  -0.00056   0.00000  -0.00056   0.00000  -0.00056   0.00000  -0.00056   0.00000   0.00005   0.00000   0.00005   0.00000   0.00005   0.00000   0.00005   0.00000   0.00005   0.00000   0.00005   0.00000   0.00007   0.00000   0.00007   0.00000   0.00007   0.00000   0.00007   0.00000   0.00007   0.00000   0.00007   0.00000   0.00005   0.00000  -0.00062   0.00000  -0.00062   0.00000   0.00005   0.00000  -0.00062   0.00000   0.00005   0.00000   0.00005   0.00000  -0.00062   0.00000   0.00005   0.00000  -0.00062   0.00000  -0.00062   0.00000   0.00005   0.00000  -0.00053   0.00000  -0.00053   0.00000  -0.00053   0.00000  -0.00053   0.00000  -0.00053   0.00000  -0.00053   0.00000   0.00016   0.00000   0.00017   0.00000   0.00017   0.00000   0.00017   0.00000   0.00017   0.00000   0.00016   0.00000   0.00080   0.00000   0.00080   0.00000   0.00080   0.00000  -0.00001   0.00000  -0.00001   0.00000  -0.00001   0.00000   0.01031   0.00000  -0.00001   0.00000  -0.00001   0.00000  -0.00001   0.00000  -0.00026   0.00000  -0.00026   0.00000  -0.00026   0.00000   0.19693   0.00000  -0.00026   0.00000  -0.00026   0.00000  -0.00026   0.00000   0.00025   0.00000   0.00025   0.00000   0.00025   0.00000   0.00017   0.00000   0.00017   0.00000   0.00016   0.00000   0.00016   0.00000   0.00017   0.00000   0.00017   0.00000  -0.00001   0.00000  -0.00001   0.00000  -0.00001   0.00000   0.01031   0.00000  -0.00001   0.00000  -0.00001   0.00000  -0.00001   0.00000   0.00025   0.00000   0.00025   0.00000   0.00025   0.00000  -0.00026   0.00000  -0.00026   0.00000  -0.00026   0.00000   0.19695   0.00000  -0.00026   0.00000  -0.00026   0.00000  -0.00026   0.00000   0.00020   0.00000   0.00020   0.00000   0.00020   0.00000   0.00020   0.00000   0.00020   0.00000   0.00020   0.00000   0.00072   0.00000   0.00072   0.00000   0.00072   0.00000   0.00021   0.00000   0.00022   0.00000   0.00022   0.00000  -0.00026   0.00000  -0.00026   0.00000  -0.00026   0.00000   0.19957   0.00000  -0.00026   0.00000  -0.00026   0.00000  -0.00026   0.00000   0.00020   0.00000   0.00020   0.00000   0.00020   0.00000   0.00020   0.00000   0.00020   0.00000   0.00020   0.00000  -0.00026   0.00000  -0.00026   0.00000  -0.00026   0.00000   0.19960   0.00000  -0.00026   0.00000  -0.00026   0.00000  -0.00026   0.00000   0.00022   0.00000   0.00022   0.00000   0.00022   0.00000  -0.00094   0.00000  -0.00094   0.00000  -0.00094   0.00000  -0.00094   0.00000  -0.00094   0.00000  -0.00094   0.00000  -0.00094   0.00000  -0.00094   0.00000  -0.00094   0.00000  -0.00094   0.00000  -0.00094   0.00000  -0.00094   0.00000   0.00510   0.00000   0.00005   0.00000   0.00005   0.00000   0.00005   0.00000   0.00005   0.00000   0.00005   0.00000   0.00005   0.00000   0.00005   0.00000  -0.00062   0.00000   0.00005   0.00000  -0.00062   0.00000  -0.00062   0.00000   0.00005   0.00000   0.00005   0.00000  -0.00062   0.00000  -0.00062   0.00000   0.00005   0.00000  -0.00062   0.00000   0.00005   0.00000   0.00007   0.00000   0.00007   0.00000   0.00007   0.00000   0.00007   0.00000   0.00007   0.00000   0.00007   0.00000  -0.00053   0.00000  -0.00053   0.00000  -0.00053   0.00000  -0.00053   0.00000  -0.00053   0.00000  -0.00053   0.00000   0.00005   0.00000   0.00005   0.00000   0.00005   0.00000   0.00005   0.00000   0.00005   0.00000   0.00005   0.00000   0.00006   0.00000   0.00006   0.00000   0.00006   0.00000   0.00006   0.00000   0.00006   0.00000   0.00006   0.00000   0.00004   0.00000  -0.00065   0.00000  -0.00066   0.00000   0.00004   0.00000  -0.00065   0.00000   0.00004   0.00000   0.00004   0.00000  -0.00065   0.00000   0.00004   0.00000  -0.00065   0.00000  -0.00065   0.00000   0.00004   0.00000  -0.00056   0.00000  -0.00056   0.00000  -0.00056   0.00000  -0.00056   0.00000  -0.00056   0.00000  -0.00056   0.00000   0.00020   0.00000   0.00020   0.00000   0.00020   0.00000   0.00020   0.00000   0.00020   0.00000   0.00020   0.00000   0.00072   0.00000   0.00072   0.00000   0.00072   0.00000  -0.00001   0.00000  -0.00001   0.00000  -0.00001   0.00000   0.01031   0.00000  -0.00001   0.00000  -0.00001   0.00000  -0.00001   0.00000  -0.00026   0.00000  -0.00026   0.00000  -0.00026   0.00000   0.19959   0.00000  -0.00026   0.00000  -0.00026   0.00000  -0.00026   0.00000   0.00021   0.00000   0.00022   0.00000   0.00022   0.00000   0.00020   0.00000   0.00020   0.00000   0.00020   0.00000   0.00020   0.00000   0.00020   0.00000   0.00020   0.00000  -0.00001   0.00000  -0.00001   0.00000  -0.00001   0.00000   0.01031   0.00000  -0.00001   0.00000  -0.00001   0.00000  -0.00001   0.00000   0.00022   0.00000   0.00022   0.00000   0.00022   0.00000  -0.00026   0.00000  -0.00026   0.00000  -0.00026   0.00000   0.19957   0.00000  -0.00026   0.00000  -0.00026   0.00000  -0.00026   0.00000   0.00017   0.00000   0.00017   0.00000   0.00017   0.00000   0.00017   0.00000   0.00017   0.00000   0.00017   0.00000   0.00080   0.00000   0.00080   0.00000   0.00080   0.00000   0.00025   0.00000   0.00025   0.00000   0.00025   0.00000  -0.00026   0.00000  -0.00026   0.00000  -0.00026   0.00000   0.19695   0.00000  -0.00026   0.00000  -0.00026   0.00000  -0.00026   0.00000   0.00016   0.00000   0.00017   0.00000   0.00017   0.00000   0.00017   0.00000   0.00017   0.00000   0.00016   0.00000  -0.00026   0.00000  -0.00026   0.00000  -0.00026   0.00000   0.19693   0.00000  -0.00026   0.00000  -0.00026   0.00000  -0.00026   0.00000   0.00025   0.00000   0.00025   0.00000   0.00025   0.00000  -0.00094   0.00000  -0.00094   0.00000  -0.00094   0.00000  -0.00094   0.00000  -0.00094   0.00000  -0.00094   0.00000  -0.00094   0.00000  -0.00094   0.00000  -0.00094   0.00000  -0.00094   0.00000  -0.00094   0.00000  -0.00094
-14.93734   0.00000   0.00510   0.00000   0.00005   0.00000   0.00005   0.00000   0.00005   0.00000   0.00005   0.00000   0.00005   0.00000   0.00005   0.00000   0.00004   0.00000  -0.00065   0.00000   0.00004   0.00000  -0.00065   0.00000  -0.00065   0.00000   0.00004   0.00000   0.00004   0.00000  -0.00065   0.00000  -0.00066   0.00000   0.00004   0.00000  -0.00065   0.00000   0.00004   0.00000   0.00006   0.00000   0.00006   0.00000   0.00006   0.00000   0.00006   0.00000   0.00006   0.00000   0.00006   0.00000  -0.00056   0.00000  -0.00056   0.00000  -0.00056   0.00000  -0.00056   0.00000  -0.00056   0.00000  -0.00056   0.00000   0.00005   0.00000   0.00005   0.00000   0.00005   0.00000   0.00005   0.00000   0.00005   0.00000   0.00005   0.00000   0.00007   0.00000   0.00007   0.00000   0.00007   0.00000   0.00007   0.00000   0.00007   0.00000   0.00007   0.00000   0.00005   0.00000  -0.00062   0.00000  -0.00062   0.00000   0.00005   0.00000  -0.00062   0.00000   0.00005   0.00000   0.00005   0.00000  -0.00062   0.00000   0.00005   0.00000  -0.00062   0.00000  -0.00062   0.00000   0.00005   0.00000  -0.00053   0.00000  -0.00053   0.00000  -0.00053   0.00000  -0.00053   0.00000  -0.00053   0.00000  -0.00053   0.00000   0.00016   0.00000   0.00017   0.00000   0.00017   0.00000   0.00017   0.00000   0.00017   0.00000   0.00016   0.00000   0.00080   0.00000   0.00080   0.00000   0.00080   0.00000  -0.00001   0.00000  -0.00001   0.00000  -0.00001   0.00000   0.01031   0.00000  -0.00001   0.00000  -0.00001   0.00000  -0.00001   0.00000  -0.00026   0.00000  -0.00026   0.00000  -0.00026   0.00000   0.19693   0.00000  -0.00026   0.00000  -0.00026   0.00000  -0.00026   0.00000   0.00025   0.00000   0.00025   0.00000   0.00025   0.00000   0.00017   0.00000   0.00017   0.00000   0.00016   0.00000   0.00016   0.00000   0.00017   0.00000   0.00017   0.00000  -0.00001   0.00000  -0.00001   0.00000  -0.00001   0.00000   0.01031   0.00000  -0.00001   0.00000  -0.00001   0.00000  -0.00001   0.00000   0.00025   0.00000   0.00025   0.00000   0.00025   0.00000  -0.00026   0.00000  -0.00026   0.00000  -0.00026   0.00000   0.19695   0.00000  -0.00026   0.00000  -0.00026   0.00000  -0.00026   0.00000   0.00020   0.00000   0.00020   0.00000   0.00020   0.00000   0.00020   0.00000   0.00020   0.00000   0.00020   0.00000   0.00072   0.00000   0.00072   0.00000   0.00072   0.00000   0.00021   0.00000   0.00022   0.00000   0.00022   0.00000  -0.00026   0.00000  -0.00026   0.00000  -0.00026   0.00000   0.19957   0.00000  -0.00026   0.00000  -0.00026   0.00000  -0.00026   0.00000   0.00020   0.00000   0.00020   0.00000   0.00020   0.00000   0.00020   0.00000   0.00020   0.00000   0.00020   0.00000  -0.00026   0.00000  -0.00026   0.00000  -0.00026   0.00000   0.19960   0.00000  -0.00026   0.00000  -0.00026   0.00000  -0.00026   0.00000   0.00022   0.00000   0.00022   0.00000   0.00022   0.00000  -0.00094   0.00000  -0.00094   0.00000  -0.00094   0.00000  -0.00094   0.00000  -0.00094   0.00000  -0.00094   0.00000  -0.00094   0.00000  -0.00094   0.00000  -0.00094   0.00000  -0.00094   0.00000  -0.00094   0.00000  -0.00094   0.00000   0.00510   0.00000   0.00005   0.00000   0.00005   0.00000   0.00005   0.00000   0.00005   0.00000   0.00005   0.00000   0.00005   0.00000   0.00005   0.00000  -0.00062   0.00000   0.00005   0.00000  -0.00062   0.00000  -0.00062   0.00000   0.00005   0.00000   0.00005   0.00000  -0.00062   0.00000  -0.00062   0.00000   0.00005   0.00000  -0.00062   0.00000   0.00005   0.00000   0.00007   0.00000   0.00007   0.00000   0.00007   0.00000   0.00007   0.00000   0.00007   0.00000   0.00007   0.00000  -0.00053   0.00000  -0.00053   0.00000  -0.00053   0.00000  -0.00053   0.00000  -0.00053   0.00000  -0.00053   0.00000   0.00005   0.00000   0.00005   0.00000   0.00005   0.00000   0.00005   0.00000   0.00005   0.00000   0.00005   0.00000   0.00006   0.00000   0.00006   0.00000   0.00006   0.00000   0.00006   0.00000   0.00006   0.00000   0.00006   0.00000   0.00004   0.00000  -0.00065   0.00000  -0.00066   0.00000   0.00004   0.00000  -0.00065   0.00000   0.00004   0.00000   0.00004   0.00000  -0.00065   0.00000   0.00004   0.00000  -0.00065   0.00000  -0.00065   0.00000   0.00004   0.00000  -0.00056   0.00000  -0.00056   0.00000  -0.00056   0.00000  -0.00056   0.00000  -0.00056   0.00000  -0.00056   0.00000   0.00020   0.00000   0.00020   0.00000   0.00020   0.00000   0.00020   0.00000   0.00020   0.00000   0.00020   0.00000   0.00072   0.00000   0.00072   0.00000   0.00072   0.00000  -0.00001   0.00000  -0.00001   0.00000  -0.00001   0.00000   0.01031   0.00000  -0.00001   0.00000  -0.00001   0.00000  -0.00001   0.00000  -0.00026   0.00000  -0.00026   0.00000  -0.00026   0.00000   0.19959   0.00000  -0.00026   0.00000  -0.00026   0.00000  -0.00026   0.00000   0.00021   0.00000   0.00022   0.00000   0.00022   0.00000   0.00020   0.00000   0.00020   0.00000   0.00020   0.00000   0.00020   0.00000   0.00020   0.00000   0.00020   0.00000  -0.00001   0.00000  -0.00001   0.00000  -0.00001   0.00000   0.01031   0.00000  -0.00001   0.00000  -0.00001   0.00000  -0.00001   0.00000   0.00022   0.00000   0.00022   0.00000   0.00022   0.00000  -0.00026   0.00000  -0.00026   0.00000  -0.00026   0.00000   0.19957   0.00000  -0.00026   0.00000  -0.00026   0.00000  -0.00026   0.00000   0.00017   0.00000   0.00017   0.00000   0.00017   0.00000   0.00017   0.00000   0.00017   0.00000   0.00017   0.00000   0.00080   0.00000   0.00080   0.00000   0.00080   0.00000   0.00025   0.00000   0.00025   0.00000   0.00025   0.00000  -0.00026   0.00000  -0.00026   0.00000  -0.00026   0.00000   0.19695   0.00000  -0.00026   0.00000  -0.00026   0.00000  -0.00026   0.00000   0.00016   0.00000   0.00017   0.00000   0.00017   0.00000   0.00017   0.00000   0.00017   0.00000   0.00016   0.00000  -0.00026   0.00000  -0.00026   0.00000  -0.00026   0.00000   0.19693   0.00000  -0.00026   0.00000  -0.00026   0.00000  -0.00026   0.00000   0.00025   0.00000   0.00025   0.00000   0.00025   0.00000  -0.00094   0.00000  -0.00094   0.00000  -0.00094   0.00000  -0.00094   0.00000  -0.00094   0.00000  -0.00094   0.00000  -0.00094   0.00000  -0.00094   0.00000  -0.00094   0.00000  -0.00094   0.00000  -0.00094   0.00000  -0.00094