   8    8    1    2
  7.6619126e+01   3.0960512e-10   3.0960512e-10   9.2297575e-10   5.0000000e-16
            1.000000e-04
  CAR
 DOS and projected DOS file by LOBSTER. Energy is shifted such that the Fermi level lies at 0 eV. 
     10.63163133      -9.41849398   401       5.61910000       1.00000000
-15.03759   0.00000   0.00000   4.00012   4.00012
-14.98747   0.00000   0.00000   4.00012   4.00012
-14.93734   0.00000   0.00000   4.00012   4.00012
-14.88722   0.00000   0.00000   4.00012   4.00012
-14.83709   0.00000   0.00000   4.00012   4.00012
-14.78697   0.00000   0.00000   4.00012   4.00012
-14.73684   0.00000   0.00000   4.00012   4.00012
-14.68672   0.00000   0.00000   4.00012   4.00012
-14.63659   0.00000   0.00000   4.00012   4.00012
-14.58647   0.00000   0.00000   4.00012   4.00012
-14.53634   0.00000   0.00000   4.00012   4.00012
-14.48622   0.00000   0.00000   4.00012   4.00012
-14.43609   0.00000   0.00000   4.00012   4.00012
-14.38596   0.00000   0.00000   4.00012   4.00012
-14.33584   0.00000   0.00000   4.00012   4.00012
-14.28571   0.00000   0.00000   4.00012   4.00012
-14.23559   0.00000   0.00000   4.00012   4.00012
-14.18546   0.00000   0.00000   4.00012   4.00012
-14.13534   0.00000   0.00000   4.00012   4.00012
-14.08521   0.00000   0.00000   4.00012   4.00012
-14.03509   0.00000   0.00000   4.00012   4.00012
-13.98496   0.00000   0.00000   4.00012   4.00012
-13.93484   0.00000   0.00000   4.00012   4.00012
-13.88471   0.00000   0.00000   4.00012   4.00012
-13.83459   0.00000   0.00000   4.00012   4.00012
-13.78446   0.00000   0.00000   4.00012   4.00012
-13.73434   0.00000   0.00000   4.00012   4.00012
-13.68421   0.00000   0.00000   4.00012   4.00012
-13.63409   0.00000   0.00000   4.00012   4.00012
-13.58396   0.00000   0.00000   4.00012   4.00012
-13.53383   0.00000   0.00000   4.00012   4.00012
-13.48371   0.00000   0.00000   4.00012   4.00012
-13.43358   0.00000   0.00000   4.00012   4.00012
-13.38346   0.00000   0.00000   4.00012   4.00012
-13.33333   0.00000   0.00000   4.00012   4.00012
-13.28321   0.00000   0.00000   4.00012   4.00012
-13.23308   0.00000   0.00000   4.00012   4.00012
-13.18296   0.00000   0.00000   4.00012   4.00012
-13.13283   0.00000   0.00000   4.00012   4.00012
-13.08271   0.00000   0.00000   4.00012   4.00012
-13.03258   0.00000   0.00000   4.00012   4.00012
-12.98246   0.00000   0.00000   4.00012   4.00012
-12.93233   0.00000   0.00000   4.00012   4.00012
-12.88221   0.00000   0.00000   4.00012   4.00012
-12.83208   0.00000   0.00000   4.00012   4.00012
-12.78195   0.00000   0.00000   4.00012   4.00012
-12.73183   0.00000   0.00000   4.00012   4.00012
-12.68170   0.00000   0.00000   4.00012   4.00012
-12.63158   0.00000   0.00000   4.00012   4.00012
-12.58145   0.00000   0.00000   4.00012   4.00012
-12.53133   0.00000   0.00000   4.00012   4.00012
-12.48120   0.00000   0.00000   4.00012   4.00012
-12.43108   0.00000   0.00000   4.00012   4.00012
-12.38095   0.00000   0.00000   4.00012   4.00012
-12.33083   0.00000   0.00000   4.00012   4.00012
-12.28070   0.00000   0.00000   4.00012   4.00012
-12.23058   0.00000   0.00000   4.00012   4.00012
-12.18045   0.00000   0.00000   4.00012   4.00012
-12.13033   0.00000   0.00000   4.00012   4.00012
-12.08020   0.00000   0.00000   4.00012   4.00012
-12.03008   0.00000   0.00000   4.00012   4.00012
-11.97995   0.00000   0.00000   4.00012   4.00012
-11.92982   0.00000   0.00000   4.00012   4.00012
-11.87970   0.00000   0.00000   4.00012   4.00012
-11.82957   0.00000   0.00000   4.00012   4.00012
-11.77945   0.00000   0.00000   4.00012   4.00012
-11.72932   0.00000   0.00000   4.00012   4.00012
-11.67920   0.00000   0.00000   4.00012   4.00012
-11.62907   0.00000   0.00000   4.00012   4.00012
-11.57895   0.00000   0.00000   4.00012   4.00012
-11.52882   0.00000   0.00000   4.00012   4.00012
-11.47870   0.00000   0.00000   4.00012   4.00012
-11.42857   0.00000   0.00000   4.00012   4.00012
-11.37845   0.00000   0.00000   4.00012   4.00012
-11.32832   0.00000   0.00000   4.00012   4.00012
-11.27820   0.00000   0.00000   4.00012   4.00012
-11.22807   0.00000   0.00000   4.00012   4.00012
-11.17794   0.00000   0.00000   4.00012   4.00012
-11.12782   0.00000   0.00000   4.00012   4.00012
-11.07769   0.00000   0.00000   4.00012   4.00012
-11.02757   0.00000   0.00000   4.00012   4.00012
-10.97744   0.00000   0.00000   4.00012   4.00012
-10.92732   0.00000   0.00000   4.00012   4.00012
-10.87719   0.00000   0.00000   4.00012   4.00012
-10.82707   0.00000   0.00000   4.00012   4.00012
-10.77694   0.00000   0.00000   4.00012   4.00012
-10.72682   0.00000   0.00000   4.00012   4.00012
-10.67669   0.00000   0.00000   4.00012   4.00012
-10.62657   0.00000   0.00000   4.00012   4.00012
-10.57644   0.00000   0.00000   4.00012   4.00012
-10.52632   0.00000   0.00000   4.00012   4.00012
-10.47619   0.00000   0.00000   4.00012   4.00012
-10.42607   0.00000   0.00000   4.00012   4.00012
-10.37594   0.00000   0.00000   4.00012   4.00012
-10.32581   0.01343   0.01344   4.00079   4.00080
-10.27569   0.08181   0.08181   4.00489   4.00490
-10.22556   0.12594   0.12594   4.01121   4.01121
-10.17544   0.15388   0.15387   4.01892   4.01892
-10.12531   0.18589   0.18585   4.02824   4.02824
-10.07519   0.21732   0.21730   4.03913   4.03913
-10.02506   0.24248   0.24249   4.05128   4.05129
 -9.97494   0.27165   0.27165   4.06490   4.06490
 -9.92481   0.30040   0.30041   4.07996   4.07996
 -9.87469   0.32784   0.32786   4.09639   4.09640
 -9.82456   0.35381   0.35382   4.11413   4.11413
 -9.77444   0.36338   0.36336   4.13234   4.13234
 -9.72431   0.37508   0.37508   4.15114   4.15115
 -9.67419   0.40336   0.40337   4.17136   4.17136
 -9.62406   0.43365   0.43366   4.19310   4.19310
 -9.57393   0.46492   0.46490   4.21640   4.21641
 -9.52381   0.49772   0.49770   4.24135   4.24135
 -9.47368   0.53210   0.53213   4.26802   4.26803
 -9.42356   0.56811   0.56813   4.29650   4.29650
 -9.37343   0.60486   0.60483   4.32682   4.32682
 -9.32331   0.64299   0.64296   4.35905   4.35905
 -9.27318   0.68491   0.68494   4.39338   4.39338
 -9.22306   0.72842   0.72845   4.42989   4.42990
 -9.17293   0.77781   0.77777   4.46888   4.46888
 -9.12281   0.85354   0.85352   4.51166   4.51167
 -9.07268   0.93575   0.93578   4.55857   4.55857
 -9.02256   0.98527   0.98531   4.60795   4.60796
 -8.97243   1.01851   1.01846   4.65901   4.65901
 -8.92231   1.05497   1.05491   4.71189   4.71189
 -8.87218   1.09364   1.09372   4.76671   4.76671
 -8.82206   1.14033   1.14039   4.82387   4.82387
 -8.77193   1.19415   1.19398   4.88372   4.88372
 -8.72180   1.28190   1.28161   4.94798   4.94796
 -8.67168   1.34208   1.34278   5.01525   5.01527
 -8.62155   1.33547   1.33525   5.08219   5.08220
 -8.57143   1.28746   1.28735   5.14673   5.14673
 -8.52130   1.27185   1.27147   5.21048   5.21046
 -8.47118   1.40999   1.41102   5.28115   5.28119
 -8.42105   1.56503   1.56435   5.35960   5.35960
 -8.37093   1.65448   1.65377   5.44253   5.44250
 -8.32080   1.85888   1.86054   5.53571   5.53576
 -8.27068   1.94784   1.94357   5.63335   5.63318
 -8.22055   1.92447   1.93381   5.72981   5.73012
 -8.17043   1.84103   1.83496   5.82209   5.82209
 -8.12030   2.00216   2.00433   5.92245   5.92256
 -8.07018   1.80661   1.80205   6.01301   6.01289
 -8.02005   1.04213   1.04816   6.06525   6.06543
 -7.96992   0.97822   0.97336   6.11428   6.11422
 -7.91980   1.20754   1.20811   6.17481   6.17478
 -7.86967   1.59481   1.59324   6.25475   6.25464
 -7.81955   1.83616   1.83909   6.34679   6.34682
 -7.76942   2.21782   2.21848   6.45795   6.45802
 -7.71930   2.21654   2.21373   6.56906   6.56899
 -7.66917   2.14337   2.14546   6.67650   6.67653
 -7.61905   2.18436   2.18277   6.78599   6.78594
 -7.56892   2.12243   2.12421   6.89238   6.89242
 -7.51880   2.28717   2.28544   7.00702   7.00698
 -7.46867   1.75584   1.75620   7.09503   7.09501
 -7.41855   1.72376   1.72614   7.18144   7.18153
 -7.36842   1.39275   1.39034   7.25125   7.25122
 -7.31830   1.16339   1.16446   7.30956   7.30959
 -7.26817   1.01488   1.01446   7.36043   7.36044
 -7.21805   1.03162   1.03169   7.41214   7.41216
 -7.16792   1.16500   1.16613   7.47054   7.47061
 -7.11779   1.49768   1.49670   7.54561   7.54563
 -7.06767   1.77516   1.77438   7.63459   7.63457
 -7.01754   1.75484   1.75310   7.72255   7.72245
 -6.96742   1.89112   1.89462   7.81735   7.81742
 -6.91729   2.11426   2.11413   7.92333   7.92339
 -6.86717   2.56588   2.56683   8.05194   8.05205
 -6.81704   2.88805   2.88705   8.19671   8.19676
 -6.76692   2.70333   2.69862   8.33221   8.33203
 -6.71679   2.64141   2.64634   8.46461   8.46468
 -6.66667   2.84416   2.84118   8.60718   8.60710
 -6.61654   3.14869   3.15236   8.76501   8.76511
 -6.56642   2.91963   2.91662   8.91135   8.91131
 -6.51629   2.64638   2.64799   9.04400   9.04404
 -6.46617   2.49765   2.49723   9.16920   9.16921
 -6.41604   2.33485   2.33445   9.28623   9.28623
 -6.36591   2.22464   2.22552   9.39774   9.39778
 -6.31579   2.17560   2.17599   9.50680   9.50685
 -6.26566   2.14400   2.14209   9.61427   9.61423
 -6.21554   2.14879   2.14909   9.72197   9.72195
 -6.16541   2.15772   2.16017   9.83013   9.83023
 -6.11529   2.18200   2.18228   9.93950   9.93962
 -6.06516   2.20794   2.20469  10.05018  10.05013
 -6.01504   2.37041   2.36900  10.16900  10.16888
 -5.96491   2.55984   2.56383  10.29731  10.29739
 -5.91479   2.89398   2.89521  10.44237  10.44251
 -5.86466   3.70804   3.70534  10.62824  10.62824
 -5.81454   3.36968   3.37063  10.79714  10.79720
 -5.76441   3.16489   3.15940  10.95578  10.95556
 -5.71429   3.44782   3.45401  11.12861  11.12870
 -5.66416   3.02637   3.02626  11.28030  11.28039
 -5.61404   2.41249   2.41046  11.40123  11.40121
 -5.56391   1.74698   1.74687  11.48880  11.48878
 -5.51378   1.36212   1.36438  11.55708  11.55717
 -5.46366   1.29546   1.29371  11.62201  11.62201
 -5.41353   1.09114   1.09265  11.67671  11.67678
 -5.36341   0.97423   0.97120  11.72554  11.72546
 -5.31328   0.92966   0.93209  11.77214  11.77219
 -5.26316   0.90012   0.90078  11.81726  11.81734
 -5.21303   0.87987   0.87774  11.86136  11.86133
 -5.16291   0.91786   0.91807  11.90737  11.90735
 -5.11278   0.88123   0.88343  11.95154  11.95164
 -5.06266   0.83356   0.83037  11.99332  11.99326
 -5.01253   0.85802   0.86100  12.03633  12.03642
 -4.96241   0.87554   0.87426  12.08022  12.08024
 -4.91228   0.90246   0.90174  12.12546  12.12544
 -4.86216   1.00045   1.00156  12.17560  12.17564
 -4.81203   1.06910   1.06842  12.22919  12.22920
 -4.76190   1.06770   1.06702  12.28271  12.28268
 -4.71178   1.10638   1.10869  12.33817  12.33826
 -4.66165   1.28360   1.28339  12.40251  12.40259
 -4.61153   1.09949   1.09744  12.45762  12.45760
 -4.56140   1.20590   1.21247  12.51807  12.51837
 -4.51128   1.77021   1.77078  12.60680  12.60713
 -4.46115   1.65588   1.64080  12.68980  12.68938
 -4.41103   1.58442   1.60132  12.76922  12.76964
 -4.36090   1.60672   1.59438  12.84976  12.84956
 -4.31078   1.59867   1.60678  12.92989  12.93010
 -4.26065   1.62561   1.62103  13.01138  13.01136
 -4.21053   1.65827   1.65253  13.09450  13.09419
 -4.16040   1.74058   1.75425  13.18175  13.18212
 -4.11028   2.12025   2.11939  13.28802  13.28836
 -4.06015   2.45792   2.44539  13.41123  13.41093
 -4.01003   2.52172   2.52491  13.53763  13.53750
 -3.95990   2.46865   2.47503  13.66137  13.66156
 -3.90977   2.13151   2.12884  13.76821  13.76827
 -3.85965   2.15262   2.15002  13.87611  13.87604
 -3.80952   2.45113   2.45511  13.99898  13.99910
 -3.75940   2.89321   2.89366  14.14400  14.14415
 -3.70927   3.27626   3.28245  14.30822  14.30868
 -3.65915   2.86500   2.85342  14.45183  14.45171
 -3.60902   2.71028   2.71580  14.58769  14.58784
 -3.55890   2.49453   2.49441  14.71273  14.71287
 -3.50877   1.70795   1.68960  14.79834  14.79756
 -3.45865   1.26207   1.28053  14.86160  14.86175
 -3.40852   1.15667   1.15569  14.91958  14.91968
 -3.35840   1.17551   1.17671  14.97850  14.97866
 -3.30827   1.25801   1.24892  15.04156  15.04126
 -3.25815   1.45684   1.46251  15.11458  15.11457
 -3.20802   1.69402   1.69724  15.19950  15.19965
 -3.15789   2.01112   2.00550  15.30030  15.30017
 -3.10777   2.00786   2.01436  15.40095  15.40114
 -3.05764   1.64658   1.64030  15.48348  15.48336
 -3.00752   1.32858   1.32874  15.55008  15.54997
 -2.95739   1.18331   1.18544  15.60939  15.60939
 -2.90727   1.08896   1.08803  15.66398  15.66393
 -2.85714   1.02841   1.03273  15.71553  15.71569
 -2.80702   1.01054   1.00821  15.76618  15.76623
 -2.75689   0.91324   0.91173  15.81196  15.81193
 -2.70677   0.71960   0.71939  15.84803  15.84799
 -2.65664   0.51990   0.52095  15.87409  15.87410
 -2.60652   0.42232   0.42307  15.89526  15.89531
 -2.55639   0.36901   0.36801  15.91375  15.91376
 -2.50627   0.31896   0.31975  15.92974  15.92978
 -2.45614   0.27869   0.27963  15.94371  15.94380
 -2.40602   0.26120   0.25955  15.95680  15.95681
 -2.35589   0.50363   0.50152  15.98205  15.98195
 -2.30576   0.98497   0.98906  16.03142  16.03153
 -2.25564   1.68958   1.68892  16.11611  16.11618
 -2.20551   1.96834   1.96665  16.21477  16.21476
 -2.15539   2.34023   2.34189  16.33208  16.33215
 -2.10526   2.97060   2.96814  16.48098  16.48093
 -2.05514   4.63372   4.63745  16.71325  16.71338
 -2.00501   2.79421   2.79111  16.85331  16.85329
 -1.95489   1.87731   1.87939  16.94741  16.94749
 -1.90476   1.57415   1.57253  17.02631  17.02632
 -1.85464   1.06651   1.06698  17.07977  17.07980
 -1.80451   2.01126   2.00976  17.18059  17.18054
 -1.75439   5.55109   5.54842  17.45884  17.45866
 -1.70426  11.54404  11.55237  18.03749  18.03772
 -1.65414   9.69723   9.69599  18.52356  18.52374
 -1.60401   7.00042   7.00379  18.87446  18.87480
 -1.55388   3.00346   2.99999  19.02501  19.02518
 -1.50376   6.85443   6.84869  19.36859  19.36847
 -1.45363   5.74703   5.74599  19.65666  19.65649
 -1.40351   5.27190   5.26992  19.92092  19.92065
 -1.35338   2.67937   2.68576  20.05522  20.05527
 -1.30326   4.33842   4.33532  20.27269  20.27258
 -1.25313   5.30420   5.29728  20.53856  20.53811
 -1.20301   5.28531   5.29997  20.80349  20.80377
 -1.15288   4.33002   4.32628  21.02053  21.02063
 -1.10276   3.73398   3.73109  21.20770  21.20765
 -1.05263   2.76014   2.76535  21.34605  21.34626
 -1.00251   2.83064   2.82512  21.48794  21.48787
 -0.95238   3.75362   3.76416  21.67609  21.67655
 -0.90226   5.33841   5.32743  21.94368  21.94359
 -0.85213   4.53515   4.53861  22.17101  22.17109
 -0.80201   3.53646   3.53883  22.34827  22.34848
 -0.75188   3.98943   3.98692  22.54824  22.54832
 -0.70175   3.39028   3.39029  22.71818  22.71826
 -0.65163   2.93419   2.93672  22.86526  22.86547
 -0.60150   3.76790   3.76354  23.05413  23.05412
 -0.55138   6.50499   6.50705  23.38019  23.38028
 -0.50125   3.87353   3.87173  23.57435  23.57435
 -0.45113   2.33205   2.33224  23.69125  23.69126
 -0.40100   1.60706   1.60738  23.77180  23.77183
 -0.35088   1.21188   1.21197  23.83255  23.83258
 -0.30075   0.95751   0.95762  23.88054  23.88058
 -0.25063   0.78637   0.78592  23.91996  23.91998
 -0.20050   0.64657   0.64671  23.95237  23.95239
 -0.15038   0.46093   0.46083  23.97547  23.97549
 -0.10025   0.29808   0.29811  23.99042  23.99043
 -0.05013   0.16152   0.16155  23.99851  23.99853
  0.00000   0.04550   0.04551  24.00079  24.00081
  0.05013   0.00000   0.00000  24.00079  24.00081
  0.10025   0.00000   0.00000  24.00079  24.00081
  0.15038   0.00000   0.00000  24.00079  24.00081
  0.20050   0.00000   0.00000  24.00079  24.00081
  0.25063   0.00000   0.00000  24.00079  24.00081
  0.30075   0.00000   0.00000  24.00079  24.00081
  0.35088   0.00000   0.00000  24.00079  24.00081
  0.40100   0.00000   0.00000  24.00079  24.00081
  0.45113   0.00000   0.00000  24.00079  24.00081
  0.50125   0.00000   0.00000  24.00079  24.00081
  0.55138   0.00000   0.00000  24.00079  24.00081
  0.60150   0.00000   0.00000  24.00079  24.00081
  0.65163   0.00910   0.00907  24.00125  24.00127
  0.70175   0.51807   0.51763  24.02722  24.02721
  0.75188   1.53913   1.53855  24.10437  24.10433
  0.80201   2.44773   2.45016  24.22706  24.22715
  0.85213   2.48440   2.48202  24.35159  24.35156
  0.90226   2.74443   2.74640  24.48916  24.48923
  0.95238   3.11339   3.11284  24.64522  24.64526
  1.00251   3.90212   3.90140  24.84081  24.84082
  1.05263   4.44239   4.44133  25.06349  25.06344
  1.10276   4.62185   4.62344  25.29516  25.29519
  1.15288   4.97914   4.97887  25.54474  25.54476
  1.20301   4.31893   4.31922  25.76123  25.76126
  1.25313   2.38136   2.38098  25.88059  25.88061
  1.30326   1.45522   1.45646  25.95354  25.95361
  1.35338   0.67902   0.67769  25.98757  25.98758
  1.40351   0.23206   0.23230  25.99921  25.99923
  1.45363   0.03332   0.03328  26.00088  26.00090
  1.50376   0.00000   0.00000  26.00088  26.00090
  1.55388   0.00000   0.00000  26.00088  26.00090
  1.60401   0.00000   0.00000  26.00088  26.00090
  1.65414   0.00000   0.00000  26.00088  26.00090
  1.70426   0.00000   0.00000  26.00088  26.00090
  1.75439   0.00000   0.00000  26.00088  26.00090
  1.80451   0.00000   0.00000  26.00088  26.00090
  1.85464   0.00000   0.00000  26.00088  26.00090
  1.90476   0.00000   0.00000  26.00088  26.00090
  1.95489   0.00000   0.00000  26.00088  26.00090
  2.00501   0.00000   0.00000  26.00088  26.00090
  2.05514   0.00000   0.00000  26.00088  26.00090
  2.10526   0.00000   0.00000  26.00088  26.00090
  2.15539   0.00000   0.00000  26.00088  26.00090
  2.20551   0.00000   0.00000  26.00088  26.00090
  2.25564   0.00000   0.00000  26.00088  26.00090
  2.30576   0.02869   0.02870  26.00231  26.00234
  2.35589   0.08208   0.08216  26.00643  26.00645
  2.40602   0.14331   0.14323  26.01361  26.01363
  2.45614   0.21371   0.21388  26.02432  26.02435
  2.50627   0.37464   0.37522  26.04310  26.04316
  2.55639   0.76092   0.75891  26.08124  26.08120
  2.60652   0.70529   0.70660  26.11660  26.11662
  2.65664   0.62243   0.62254  26.14780  26.14783
  2.70677   0.61233   0.61197  26.17849  26.17850
  2.75689   0.61365   0.61347  26.20925  26.20925
  2.80702   0.61616   0.61630  26.24013  26.24014
  2.85714   0.62054   0.62062  26.27124  26.27125
  2.90727   0.62868   0.62884  26.30275  26.30277
  2.95739   0.63619   0.63612  26.33464  26.33466
  3.00752   0.64734   0.64726  26.36709  26.36710
  3.05764   0.62999   0.63001  26.39867  26.39868
  3.10777   0.60121   0.60133  26.42880  26.42882
  3.15789   0.57617   0.57634  26.45768  26.45771
  3.20802   0.59315   0.59351  26.48742  26.48746
  3.25815   0.62287   0.62263  26.51864  26.51867
  3.30827   0.64744   0.64703  26.55109  26.55111
  3.35840   0.67458   0.67475  26.58490  26.58493
  3.40852   0.71079   0.71073  26.62053  26.62055
  3.45865   0.73510   0.73523  26.65738  26.65741
  3.50877   0.86152   0.86076  26.70056  26.70055
  3.55890   0.94770   0.94835  26.74807  26.74809
  3.60902   0.99839   0.99794  26.79811  26.79811
  3.65915   1.07158   1.07305  26.85183  26.85190
  3.70927   1.36410   1.36556  26.92020  26.92035
  3.75940   1.90027   1.89751  27.01545  27.01546
  3.80952   1.52168   1.52340  27.09173  27.09182
  3.85965   1.24586   1.24995  27.15418  27.15448
  3.90977   1.10346   1.09334  27.20949  27.20928
  3.95990   0.93166   0.93290  27.25619  27.25604
  4.01003   0.86636   0.86972  27.29961  27.29964
  4.06015   0.84471   0.84681  27.34196  27.34208
  4.11028   0.82495   0.82571  27.38331  27.38347
  4.16040   0.79464   0.79399  27.42314  27.42327
  4.21053   0.74368   0.74327  27.46042  27.46053
  4.26065   0.72248   0.72351  27.49663  27.49679
  4.31078   0.69103   0.69182  27.53127  27.53147
  4.36090   0.77996   0.78025  27.57036  27.57058
  4.41103   0.90954   0.90981  27.61596  27.61619
  4.46115   1.01870   1.01824  27.66702  27.66723
  4.51128   1.14278   1.14341  27.72430  27.72454
  4.56140   1.22792   1.22931  27.78585  27.78616
  4.61153   1.34086   1.33932  27.85306  27.85329
  4.66165   1.37557   1.37423  27.92201  27.92218
  4.71178   1.31998   1.32322  27.98818  27.98850
  4.76190   1.31334   1.30863  28.05401  28.05410
  4.81203   1.33500   1.33593  28.12093  28.12106
  4.86216   1.37421   1.37723  28.18981  28.19010
  4.91228   1.47796   1.48082  28.26389  28.26432
  4.96241   1.39088   1.38788  28.33361  28.33389
  5.01253   1.30373   1.30472  28.39896  28.39929
      5.01253133     -15.03759398   401       5.61910000       1.00000000; CN2; X 1a1g 1a1u 2a1g 1e1u 3a1g 1e1g 2a1u 3a1u 4a1g 2e1u 5a1g 4a1u 
-15.03759   0.00000   0.00000   0.00000   0.00000   0.00000   0.00000   0.00000   0.00000   0.00000   0.00000   0.00000   0.00000   0.00000   0.00000   0.00000   0.00000   0.00000   0.00000   0.00000   0.00000   0.00000   0.00000   0.00000   0.00000
-14.98747   0.00000   0.00000   0.00000   0.00000   0.00000   0.00000   0.00000   0.00000   0.00000   0.00000   0.00000   0.00000   0.00000   0.00000   0.00000   0.00000   0.00000   0.00000   0.00000   0.00000   0.00000   0.00000   0.00000   0.00000
-14.93734   0.00000   0.00000   0.00000   0.00000   0.00000   0.00000   0.00000   0.00000   0.00000   0.00000   0.00000   0.00000   0.00000   0.00000   0.00000   0.00000   0.00000   0.00000   0.00000   0.00000   0.00000   0.00000   0.00000   0.00000
-14.88722   0.00000   0.00000   0.00000   0.00000   0.00000   0.00000   0.00000   0.00000   0.00000   0.00000   0.00000   0.00000   0.00000   0.00000   0.00000   0.00000   0.00000   0.00000   0.00000   0.00000   0.00000   0.00000   0.00000   0.00000
-14.83709   0.00000   0.00000   0.00000   0.00000   0.00000   0.00000   0.00000   0.00000   0.00000   0.00000   0.00000   0.00000   0.00000   0.00000   0.00000   0.00000   0.00000   0.00000   0.00000   0.00000   0.00000   0.00000   0.00000   0.00000
-14.78697   0.00000   0.00000   0.00000   0.00000   0.00000   0.00000   0.00000   0.00000   0.00000   0.00000   0.00000   0.00000   0.00000   0.00000   0.00000   0.00000   0.00000   0.00000   0.00000   0.00000   0.00000   0.00000   0.00000   0.00000
-14.73684   0.00000   0.00000   0.00000   0.00000   0.00000   0.00000   0.00000   0.00000   0.00000   0.00000   0.00000   0.00000   0.00000   0.00000   0.00000   0.00000   0.00000   0.00000   0.00000   0.00000   0.00000   0.00000   0.00000   0.00000
-14.68672   0.00000   0.00000   0.00000   0.00000   0.00000   0.00000   0.00000   0.00000   0.00000   0.00000   0.00000   0.00000   0.00000   0.00000   0.00000   0.00000   0.00000   0.00000   0.00000   0.00000   0.00000   0.00000   0.00000   0.00000
-14.63659   0.00000   0.00000   0.00000   0.00000   0.00000   0.00000   0.00000   0.00000   0.00000   0.00000   0.00000   0.00000   0.00000   0.00000   0.00000   0.00000   0.00000   0.00000   0.00000   0.00000   0.00000   0.00000   0.00000   0.00000
-14.58647   0.00000   0.00000   0.00000   0.00000   0.00000   0.00000   0.00000   0.00000   0.00000   0.00000   0.00000   0.00000   0.00000   0.00000   0.00000   0.00000   0.00000   0.00000   0.00000   0.00000   0.00000   0.00000   0.00000   0.00000
-14.53634   0.00000   0.00000   0.00000   0.00000   0.00000   0.00000   0.00000   0.00000   0.00000   0.00000   0.00000   0.00000   0.00000   0.00000   0.00000   0.00000   0.00000   0.00000   0.00000   0.00000   0.00000   0.00000   0.00000   0.00000
-14.48622   0.00000   0.00000   0.00000   0.00000   0.00000   0.00000   0.00000   0.00000   0.00000   0.00000   0.00000   0.00000   0.00000   0.00000   0.00000   0.00000   0.00000   0.00000   0.00000   0.00000   0.00000   0.00000   0.00000   0.00000
-14.43609   0.00000   0.00000   0.00000   0.00000   0.00000   0.00000   0.00000   0.00000   0.00000   0.00000   0.00000   0.00000   0.00000   0.00000   0.00000   0.00000   0.00000   0.00000   0.00000   0.00000   0.00000   0.00000   0.00000   0.00000
-14.38596   0.00000   0.00000   0.00000   0.00000   0.00000   0.00000   0.00000   0.00000   0.00000   0.00000   0.00000   0.00000   0.00000   0.00000   0.00000   0.00000   0.00000   0.00000   0.00000   0.00000   0.00000   0.00000   0.00000   0.00000
-14.33584   0.00000   0.00000   0.00000   0.00000   0.00000   0.00000   0.00000   0.00000   0.00000   0.00000   0.00000   0.00000   0.00000   0.00000   0.00000   0.00000   0.00000   0.00000   0.00000   0.00000   0.00000   0.00000   0.00000   0.00000
-14.28571   0.00000   0.00000   0.00000   0.00000   0.00000   0.00000   0.00000   0.00000   0.00000   0.00000   0.00000   0.00000   0.00000   0.00000   0.00000   0.00000   0.00000   0.00000   0.00000   0.00000   0.00000   0.00000   0.00000   0.00000
-14.23559   0.00000   0.00000   0.00000   0.00000   0.00000   0.00000   0.00000   0.00000   0.00000   0.00000   0.00000   0.00000   0.00000   0.00000   0.00000   0.00000   0.00000   0.00000   0.00000   0.00000   0.00000   0.00000   0.00000   0.00000
-14.18546   0.00000   0.00000   0.00000   0.00000   0.00000   0.00000   0.00000   0.00000   0.00000   0.00000   0.00000   0.00000   0.00000   0.00000   0.00000   0.00000   0.00000   0.00000   0.00000   0.00000   0.00000   0.00000   0.00000   0.00000
-14.13534   0.00000   0.00000   0.00000   0.00000   0.00000   0.00000   0.00000   0.00000   0.00000   0.00000   0.00000   0.00000   0.00000   0.00000   0.00000   0.00000   0.00000   0.00000   0.00000   0.00000   0.00000   0.00000   0.00000   0.00000
-14.08521   0.00000   0.00000   0.00000   0.00000   0.00000   0.00000   0.00000   0.00000   0.00000   0.00000   0.00000   0.00000   0.00000   0.00000   0.00000   0.00000   0.00000   0.00000   0.00000   0.00000   0.00000   0.00000   0.00000   0.00000
-14.03509   0.00000   0.00000   0.00000   0.00000   0.00000   0.00000   0.00000   0.00000   0.00000   0.00000   0.00000   0.00000   0.00000   0.00000   0.00000   0.00000   0.00000   0.00000   0.00000   0.00000   0.00000   0.00000   0.00000   0.00000
-13.98496   0.00000   0.00000   0.00000   0.00000   0.00000   0.00000   0.00000   0.00000   0.00000   0.00000   0.00000   0.00000   0.00000   0.00000   0.00000   0.00000   0.00000   0.00000   0.00000   0.00000   0.00000   0.00000   0.00000   0.00000
-13.93484   0.00000   0.00000   0.00000   0.00000   0.00000   0.00000   0.00000   0.00000   0.00000   0.00000   0.00000   0.00000   0.00000   0.00000   0.00000   0.00000   0.00000   0.00000   0.00000   0.00000   0.00000   0.00000   0.00000   0.00000
-13.88471   0.00000   0.00000   0.00000   0.00000   0.00000   0.00000   0.00000   0.00000   0.00000   0.00000   0.00000   0.00000   0.00000   0.00000   0.00000   0.00000   0.00000   0.00000   0.00000   0.00000   0.00000   0.00000   0.00000   0.00000
-13.83459   0.00000   0.00000   0.00000   0.00000   0.00000   0.00000   0.00000   0.00000   0.00000   0.00000   0.00000   0.00000   0.00000   0.00000   0.00000   0.00000   0.00000   0.00000   0.00000   0.00000   0.00000   0.00000   0.00000   0.00000
-13.78446   0.00000   0.00000   0.00000   0.00000   0.00000   0.00000   0.00000   0.00000   0.00000   0.00000   0.00000   0.00000   0.00000   0.00000   0.00000   0.00000   0.00000   0.00000   0.00000   0.00000   0.00000   0.00000   0.00000   0.00000
-13.73434   0.00000   0.00000   0.00000   0.00000   0.00000   0.00000   0.00000   0.00000   0.00000   0.00000   0.00000   0.00000   0.00000   0.00000   0.00000   0.00000   0.00000   0.00000   0.00000   0.00000   0.00000   0.00000   0.00000   0.00000
-13.68421   0.00000   0.00000   0.00000   0.00000   0.00000   0.00000   0.00000   0.00000   0.00000   0.00000   0.00000   0.00000   0.00000   0.00000   0.00000   0.00000   0.00000   0.00000   0.00000   0.00000   0.00000   0.00000   0.00000   0.00000
-13.63409   0.00000   0.00000   0.00000   0.00000   0.00000   0.00000   0.00000   0.00000   0.00000   0.00000   0.00000   0.00000   0.00000   0.00000   0.00000   0.00000   0.00000   0.00000   0.00000   0.00000   0.00000   0.00000   0.00000   0.00000
-13.58396   0.00000   0.00000   0.00000   0.00000   0.00000   0.00000   0.00000   0.00000   0.00000   0.00000   0.00000   0.00000   0.00000   0.00000   0.00000   0.00000   0.00000   0.00000   0.00000   0.00000   0.00000   0.00000   0.00000   0.00000
-13.53383   0.00000   0.00000   0.00000   0.00000   0.00000   0.00000   0.00000   0.00000   0.00000   0.00000   0.00000   0.00000   0.00000   0.00000   0.00000   0.00000   0.00000   0.00000   0.00000   0.00000   0.00000   0.00000   0.00000   0.00000
-13.48371   0.00000   0.00000   0.00000   0.00000   0.00000   0.00000   0.00000   0.00000   0.00000   0.00000   0.00000   0.00000   0.00000   0.00000   0.00000   0.00000   0.00000   0.00000   0.00000   0.00000   0.00000   0.00000   0.00000   0.00000
-13.43358   0.00000   0.00000   0.00000   0.00000   0.00000   0.00000   0.00000   0.00000   0.00000   0.00000   0.00000   0.00000   0.00000   0.00000   0.00000   0.00000   0.00000   0.00000   0.00000   0.00000   0.00000   0.00000   0.00000   0.00000
-13.38346   0.00000   0.00000   0.00000   0.00000   0.00000   0.00000   0.00000   0.00000   0.00000   0.00000   0.00000   0.00000   0.00000   0.00000   0.00000   0.00000   0.00000   0.00000   0.00000   0.00000   0.00000   0.00000   0.00000   0.00000
-13.33333   0.00000   0.00000   0.00000   0.00000   0.00000   0.00000   0.00000   0.00000   0.00000   0.00000   0.00000   0.00000   0.00000   0.00000   0.00000   0.00000   0.00000   0.00000   0.00000   0.00000   0.00000   0.00000   0.00000   0.00000
-13.28321   0.00000   0.00000   0.00000   0.00000   0.00000   0.00000   0.00000   0.00000   0.00000   0.00000   0.00000   0.00000   0.00000   0.00000   0.00000   0.00000   0.00000   0.00000   0.00000   0.00000   0.00000   0.00000   0.00000   0.00000
-13.23308   0.00000   0.00000   0.00000   0.00000   0.00000   0.00000   0.00000   0.00000   0.00000   0.00000   0.00000   0.00000   0.00000   0.00000   0.00000   0.00000   0.00000   0.00000   0.00000   0.00000   0.00000   0.00000   0.00000   0.00000
-13.18296   0.00000   0.00000   0.00000   0.00000   0.00000   0.00000   0.00000   0.00000   0.00000   0.00000   0.00000   0.00000   0.00000   0.00000   0.00000   0.00000   0.00000   0.00000   0.00000   0.00000   0.00000   0.00000   0.00000   0.00000