  COHP#    atomMU    atomNU   distance   translation   ICOHP (at) eF    ICOHP (at) eF 
                                                          for spin 1       for spin 2 
      1       Ni1       Ni1    3.09605    -1  -1   0        -0.03433         -0.03173 
      2       Ni1       Ni1    3.09605     0  -1   0        -0.03433         -0.03174 
      3       Ni1       Ni1    3.09605    -1   0   0        -0.03434         -0.03173 
      4       Ni1       Ni1    3.09605     1   0   0        -0.03434         -0.03173 
      5       Ni1       Ni1    3.09605     0   1   0        -0.03433         -0.03174 
      6       Ni1       Ni1    3.09605     1   1   0        -0.03433         -0.03173 
      7       Ni1        N3    3.73205    -2  -1   0        -0.00161         -0.00143 
      8       Ni1        N3    2.08390    -1  -1   0        -0.87677         -0.60670 
      9       Ni1        N3    3.73205     0  -1   0        -0.00161         -0.00143 
     10       Ni1        N3    2.08390    -1   0   0        -0.87678         -0.60666 
     11       Ni1        N3    2.08390     0   0   0        -0.87676         -0.60669 
     12       Ni1        N3    3.73205     0   1   0        -0.00161         -0.00143 
     13       Ni1        N4    3.73205    -1  -2   0        -0.00161         -0.00143 
     14       Ni1        N4    2.08390    -1  -1   0        -0.87681         -0.60666 
     15       Ni1        N4    2.08390     0  -1   0        -0.87684         -0.60663 
     16       Ni1        N4    3.73205    -1   0   0        -0.00161         -0.00143 
     17       Ni1        N4    2.08390     0   0   0        -0.87682         -0.60667 
     18       Ni1        N4    3.73205     1   0   0        -0.00161         -0.00143 
     19       Ni1        N5    3.96899    -1  -1   0        -0.00767         -0.00903 
     20       Ni1        N5    3.96899     0  -1   0        -0.00766         -0.00904 
     21       Ni1        N5    3.96899     0   0   0        -0.00767         -0.00902 
     22       Ni1        N6    3.96899    -1  -1   0        -0.00768         -0.00902 
     23       Ni1        N6    3.96899    -1   0   0        -0.00767         -0.00903 
     24       Ni1        N6    3.96899     0   0   0        -0.00769         -0.00902 
     25       Ni1        C7    2.91881    -1  -1   0        -0.02786         -0.03713 
     26       Ni1        C7    2.91881    -1   0   0        -0.02785         -0.03714 
     27       Ni1        C7    2.91881     0   0   0        -0.02786         -0.03714 
     28       Ni1        C8    2.91881    -1  -1   0        -0.02785         -0.03714 
     29       Ni1        C8    2.91881     0  -1   0        -0.02783         -0.03714 
     30       Ni1        C8    2.91881     0   0   0        -0.02785         -0.03713 
     31       Ni2       Ni2    3.09605    -1  -1   0        -0.03174         -0.03433 
     32       Ni2       Ni2    3.09605     0  -1   0        -0.03174         -0.03433 
     33       Ni2       Ni2    3.09605    -1   0   0        -0.03174         -0.03433 
     34       Ni2       Ni2    3.09605     1   0   0        -0.03174         -0.03433 
     35       Ni2       Ni2    3.09605     0   1   0        -0.03174         -0.03433 
     36       Ni2       Ni2    3.09605     1   1   0        -0.03174         -0.03433 
     37       Ni2        N3    3.96899    -1  -1   0        -0.00902         -0.00769 
     38       Ni2        N3    3.96899    -1   0   0        -0.00901         -0.00768 
     39       Ni2        N3    3.96899     0   0   0        -0.00901         -0.00769 
     40       Ni2        N4    3.96899    -1  -1  -1        -0.00903         -0.00768 
     41       Ni2        N4    3.96899     0  -1  -1        -0.00902         -0.00767 
     42       Ni2        N4    3.96899     0   0  -1        -0.00903         -0.00768 
     43       Ni2        N5    3.73205    -1  -2  -1        -0.00143         -0.00161 
     44       Ni2        N5    2.08390    -1  -1  -1        -0.60666         -0.87681 
     45       Ni2        N5    2.08390     0  -1  -1        -0.60664         -0.87683 
     46       Ni2        N5    3.73205    -1   0  -1        -0.00143         -0.00161 
     47       Ni2        N5    2.08390     0   0  -1        -0.60665         -0.87679 
     48       Ni2        N5    3.73205     1   0  -1        -0.00143         -0.00161 
     49       Ni2        N6    3.73205    -2  -1   0        -0.00143         -0.00161 
     50       Ni2        N6    2.08390    -1  -1   0        -0.60669         -0.87676 
     51       Ni2        N6    3.73205     0  -1   0        -0.00143         -0.00161 
     52       Ni2        N6    2.08390    -1   0   0        -0.60670         -0.87679 
     53       Ni2        N6    2.08390     0   0   0        -0.60670         -0.87677 
     54       Ni2        N6    3.73205     0   1   0        -0.00143         -0.00160 
     55       Ni2        C7    2.91881    -1  -1   0        -0.03713         -0.02786 
     56       Ni2        C7    2.91881    -1   0   0        -0.03713         -0.02786 
     57       Ni2        C7    2.91881     0   0   0        -0.03713         -0.02786 
     58       Ni2        C8    2.91881    -1  -1  -1        -0.03714         -0.02785 
     59       Ni2        C8    2.91881     0  -1  -1        -0.03714         -0.02785 
     60       Ni2        C8    2.91881     0   0  -1        -0.03714         -0.02785 
     61        N3        N3    3.09605    -1  -1   0        -0.00773         -0.01037 
     62        N3        N3    3.09605     0  -1   0        -0.00776         -0.01037 
     63        N3        N3    3.09605    -1   0   0        -0.00776         -0.01036 
     64        N3        N3    3.09605     1   0   0        -0.00776         -0.01036 
     65        N3        N3    3.09605     0   1   0        -0.00776         -0.01037 
     66        N3        N3    3.09605     1   1   0        -0.00773         -0.01037 
     67        N3        N4    2.79017     0  -1   0        -0.03170         -0.03190 
     68        N3        N4    2.79017     0   0   0        -0.03173         -0.03187 
     69        N3        N4    2.79017     1   0   0        -0.03169         -0.03189 
     70        N3        N6    3.96216    -1  -1   0        -0.00096         -0.00096 
     71        N3        N6    3.96216     0  -1   0        -0.00097         -0.00096 
     72        N3        N6    3.96216    -1   0   0        -0.00097         -0.00094 
     73        N3        N6    2.47248     0   0   0        -0.45007         -0.44985 
     74        N3        N6    3.96216     1   0   0        -0.00097         -0.00096 
     75        N3        N6    3.96216     0   1   0        -0.00098         -0.00094 
     76        N3        N6    3.96216     1   1   0        -0.00095         -0.00095 
     77        N3        C7    3.33374    -1  -1   0        -0.00281         -0.00139 
     78        N3        C7    3.33374     0  -1   0        -0.00282         -0.00140 
     79        N3        C7    3.33374    -1   0   0        -0.00282         -0.00138 
     80        N3        C7    1.23624     0   0   0        -8.45354         -8.95131 
     81        N3        C7    3.33374     1   0   0        -0.00282         -0.00139 
     82        N3        C7    3.33374     0   1   0        -0.00282         -0.00138 
     83        N3        C7    3.33374     1   1   0        -0.00281         -0.00139 
     84        N3        C8    3.82235     0  -1   0        -0.00500         -0.00682 
     85        N3        C8    3.82235     0   0   0        -0.00503         -0.00682 
     86        N3        C8    3.82235     1   0   0        -0.00500         -0.00682 
     87        N4        N4    3.09605    -1  -1   0        -0.00775         -0.01035 
     88        N4        N4    3.09605     0  -1   0        -0.00776         -0.01035 
     89        N4        N4    3.09605    -1   0   0        -0.00775         -0.01035 
     90        N4        N4    3.09605     1   0   0        -0.00775         -0.01035 
     91        N4        N4    3.09605     0   1   0        -0.00776         -0.01035 
     92        N4        N4    3.09605     1   1   0        -0.00775         -0.01035 
     93        N4        N5    3.96216    -1  -1   0        -0.00095         -0.00095 
     94        N4        N5    3.96216     0  -1   0        -0.00097         -0.00094 
     95        N4        N5    3.96216    -1   0   0        -0.00097         -0.00096 
     96        N4        N5    2.47248     0   0   0        -0.45008         -0.44985 
     97        N4        N5    3.96216     1   0   0        -0.00097         -0.00094 
     98        N4        N5    3.96216     0   1   0        -0.00097         -0.00096 
     99        N4        N5    3.96216     1   1   0        -0.00096         -0.00096 
    100        N4        C7    3.82235    -1   0   0        -0.00500         -0.00683 
    101        N4        C7    3.82235     0   0   0        -0.00503         -0.00683 
    102        N4        C7    3.82235     0   1   0        -0.00499         -0.00682 
    103        N4        C8    3.33374    -1  -1   0        -0.00281         -0.00138 
    104        N4        C8    3.33374     0  -1   0        -0.00282         -0.00138 
    105        N4        C8    3.33374    -1   0   0        -0.00282         -0.00139 
    106        N4        C8    1.23624     0   0   0        -8.45458         -8.95040 
    107        N4        C8    3.33374     1   0   0        -0.00282         -0.00137 
    108        N4        C8    3.33374     0   1   0        -0.00282         -0.00139 
    109        N4        C8    3.33374     1   1   0        -0.00282         -0.00139 
    110        N5        N5    3.09605    -1  -1   0        -0.01035         -0.00775 
    111        N5        N5    3.09605     0  -1   0        -0.01038         -0.00775 
    112        N5        N5    3.09605    -1   0   0        -0.01038         -0.00774 
    113        N5        N5    3.09605     1   0   0        -0.01038         -0.00774 
    114        N5        N5    3.09605     0   1   0        -0.01038         -0.00775 
    115        N5        N5    3.09605     1   1   0        -0.01035         -0.00775 
    116        N5        N6    2.79017    -1   0   1        -0.03190         -0.03170 
    117        N5        N6    2.79017     0   0   1        -0.03189         -0.03171 
    118        N5        N6    2.79017     0   1   1        -0.03189         -0.03170 
    119        N5        C7    3.82235    -1   0   1        -0.00681         -0.00502 
    120        N5        C7    3.82235     0   0   1        -0.00684         -0.00501 
    121        N5        C7    3.82235     0   1   1        -0.00682         -0.00502 
    122        N5        C8    3.33374    -1  -1   0        -0.00139         -0.00282 
    123        N5        C8    3.33374     0  -1   0        -0.00139         -0.00282 
    124        N5        C8    3.33374    -1   0   0        -0.00140         -0.00280 
    125        N5        C8    1.23624     0   0   0        -8.95188         -8.45300 
    126        N5        C8    3.33374     1   0   0        -0.00139         -0.00282 
    127        N5        C8    3.33374     0   1   0        -0.00140         -0.00281 
    128        N5        C8    3.33374     1   1   0        -0.00138         -0.00281 
    129        N6        N6    3.09605    -1  -1   0        -0.01037         -0.00773 
    130        N6        N6    3.09605     0  -1   0        -0.01038         -0.00774 
    131        N6        N6    3.09605    -1   0   0        -0.01037         -0.00774 
    132        N6        N6    3.09605     1   0   0        -0.01037         -0.00774 
    133        N6        N6    3.09605     0   1   0        -0.01038         -0.00774 
    134        N6        N6    3.09605     1   1   0        -0.01037         -0.00773 
    135        N6        C7    3.33374    -1  -1   0        -0.00139         -0.00281 
    136        N6        C7    3.33374     0  -1   0        -0.00140         -0.00280 
    137        N6        C7    3.33374    -1   0   0        -0.00139         -0.00282 
    138        N6        C7    1.23624     0   0   0        -8.95285         -8.45208 
    139        N6        C7    3.33374     1   0   0        -0.00140         -0.00280 
    140        N6        C7    3.33374     0   1   0        -0.00139         -0.00282 
    141        N6        C7    3.33374     1   1   0        -0.00139         -0.00281 
    142        N6        C8    3.82235     0  -1  -1        -0.00681         -0.00502 
    143        N6        C8    3.82235     0   0  -1        -0.00683         -0.00501 
    144        N6        C8    3.82235     1   0  -1        -0.00680         -0.00502 
    145        C7        C7    3.09605    -1  -1   0        -0.00961         -0.00961 
    146        C7        C7    3.09605     0  -1   0        -0.00957         -0.00961 
    147        C7        C7    3.09605    -1   0   0        -0.00957         -0.00962 
    148        C7        C7    3.09605     1   0   0        -0.00957         -0.00962 
    149        C7        C7    3.09605     0   1   0        -0.00957         -0.00961 
    150        C7        C7    3.09605     1   1   0        -0.00961         -0.00961 
    151        C8        C8    3.09605    -1  -1   0        -0.00961         -0.00961 
    152        C8        C8    3.09605     0  -1   0        -0.00957         -0.00961 
    153        C8        C8    3.09605    -1   0   0        -0.00958         -0.00962 
    154        C8        C8    3.09605     1   0   0        -0.00958         -0.00962 
    155        C8        C8    3.09605     0   1   0        -0.00957         -0.00961 
    156        C8        C8    3.09605     1   1   0        -0.00961         -0.00961 