  COHP#  fragmentAlpha   fragmentBeta   distance   translation     ICOHP (at) eF      ICOHP (at) eF 
                                                                      for spin 1         for spin 2 
      1          CN2_1          CN2_1    3.09605    -1  -1   0          -0.03801           -0.03801 
      2          CN2_1          CN2_1    3.09605     0  -1   0          -0.03808           -0.03801 
      3          CN2_1          CN2_1    3.09605    -1   0   0          -0.03808           -0.03800 
      4          CN2_1          CN2_1    3.09605     1   0   0          -0.03808           -0.03800 
      5          CN2_1          CN2_1    3.09605     0   1   0          -0.03808           -0.03801 
      6          CN2_1          CN2_1    3.09605     1   1   0          -0.03801           -0.03801 
      7          CN2_1           Ni_2    3.73205    -1   0   0          -0.00219           -0.00222 
      8          CN2_1           Ni_2    2.08390     0   0   0          -0.91234           -0.65283 
      9          CN2_1           Ni_2    3.73205     1   0   0          -0.00219           -0.00222 
     10          CN2_1           Ni_2    2.08390     0   1   0          -0.91233           -0.65281 
     11          CN2_1           Ni_2    2.08390     1   1   0          -0.91233           -0.65283 
     12          CN2_1           Ni_2    3.73205     1   2   0          -0.00219           -0.00222 
     13          CN2_1           Ni_3    3.73205    -1   0   1          -0.00222           -0.00219 
     14          CN2_1           Ni_3    2.08390     0   0   1          -0.65281           -0.91232 
     15          CN2_1           Ni_3    3.73205     1   0   1          -0.00222           -0.00219 
     16          CN2_1           Ni_3    2.08390     0   1   1          -0.65280           -0.91235 
     17          CN2_1           Ni_3    2.08390     1   1   1          -0.65283           -0.91234 
     18          CN2_1           Ni_3    3.73205     1   2   1          -0.00222           -0.00219 
     19          CN2_1            N_4    2.79017    -1   0   0          -0.03750           -0.04046 
     20          CN2_1            N_4    2.79017     0   0   0          -0.03753           -0.04044 
     21          CN2_1            N_4    2.79017     0   1   0          -0.03750           -0.04046 
     22          CN2_1            N_5    2.79017    -1   0   1          -0.04046           -0.03751 
     23          CN2_1            N_5    2.79017     0   0   1          -0.04045           -0.03750 
     24          CN2_1            N_5    2.79017     0   1   1          -0.04046           -0.03751 
     25          CN2_1            C_6    3.82235    -1   0   0          -0.00633           -0.00722 
     26          CN2_1            C_6    3.82235     0   0   0          -0.00640           -0.00723 
     27          CN2_1            C_6    3.82235     0   1   0          -0.00633           -0.00721 
     28          CN2_1            C_6    3.82235    -1   0   1          -0.00715           -0.00637 
     29          CN2_1            C_6    3.82235     0   0   1          -0.00727           -0.00635 
     30          CN2_1            C_6    3.82235     0   1   1          -0.00717           -0.00638 