ESCALE ; pCOHP file generated by LOBSTER. Energy is shifted such that the Fermi level lies at 0 eV.
       157          1        401  -8.75259e+00   1.12975e+01   6.28500e+00 
Average
No.1:Ni1->Ni1(3.0535939548040698)
No.2:Ni1->Ni1(3.0535939548493936)
No.3:Ni1->Ni1(3.0535939548032278)
No.4:Ni1->Ni1(3.0535939548032278)
No.5:Ni1->Ni1(3.0535939548493936)
No.6:Ni1->Ni1(3.0535939548040698)
No.7:Ni1->N3(3.6805126068541054)
No.8:Ni1->N3(2.0546866665366008)
No.9:Ni1->N3(3.6805126854415557)
No.10:Ni1->N3(2.05468666426711)
No.11:Ni1->N3(2.0546867345856912)
No.12:Ni1->N3(3.6805126829090171)
No.13:Ni1->N4(3.6805126799120251)
No.14:Ni1->N4(2.0546865930733249)
No.15:Ni1->N4(2.0546865908267038)
No.16:Ni1->N4(3.6805125304368764)
No.17:Ni1->N4(2.054686456952262)
No.18:Ni1->N4(3.6805125278532689)
No.19:Ni1->N5(3.952012916432015)
No.20:Ni1->N5(3.9520129152639769)
No.21:Ni1->N5(3.9520128456614678)
No.22:Ni1->N6(3.9520126344533955)
No.23:Ni1->N6(3.9520126332734669)
No.24:Ni1->N6(3.952012669832726)
No.25:Ni1->C7(2.8948821029791185)
No.26:Ni1->C7(2.8948821013683128)
No.27:Ni1->C7(2.8948821512779972)
No.28:Ni1->C8(2.894882151277999)
No.29:Ni1->C8(2.8948821496834252)
No.30:Ni1->C8(2.8948820546640079)
No.31:Ni2->Ni2(3.0535939548040698)
No.32:Ni2->Ni2(3.0535939548493936)
No.33:Ni2->Ni2(3.0535939548032278)
No.34:Ni2->Ni2(3.0535939548032278)
No.35:Ni2->Ni2(3.0535939548493936)
No.36:Ni2->Ni2(3.0535939548040698)
No.37:Ni2->N3(3.9520126344533955)
No.38:Ni2->N3(3.9520126332734669)
No.39:Ni2->N3(3.952012669832726)
No.40:Ni2->N4(3.952012916432015)
No.41:Ni2->N4(3.9520129152639769)
No.42:Ni2->N4(3.9520128456614678)
No.43:Ni2->N5(3.6805126799120251)
No.44:Ni2->N5(2.0546865930733249)
No.45:Ni2->N5(2.0546865908267038)
No.46:Ni2->N5(3.6805125304368764)
No.47:Ni2->N5(2.054686456952262)
No.48:Ni2->N5(3.6805125278532689)
No.49:Ni2->N6(3.6805126068541054)
No.50:Ni2->N6(2.0546866665366008)
No.51:Ni2->N6(3.6805126854415557)
No.52:Ni2->N6(2.05468666426711)
No.53:Ni2->N6(2.0546867345856916)
No.54:Ni2->N6(3.6805126829090176)
No.55:Ni2->C7(2.8948821029791185)
No.56:Ni2->C7(2.8948821013683128)
No.57:Ni2->C7(2.8948821512779972)
No.58:Ni2->C8(2.894882151277999)
No.59:Ni2->C8(2.8948821496834252)
No.60:Ni2->C8(2.8948820546640079)
No.61:N3->N3(3.0535939548040698)
No.62:N3->N3(3.0535939548493936)
No.63:N3->N3(3.0535939548032278)
No.64:N3->N3(3.0535939548032278)
No.65:N3->N3(3.0535939548493936)
No.66:N3->N3(3.0535939548040698)
No.67:N3->N4(2.7500023285566408)
No.68:N3->N4(2.7500022302259981)
No.69:N3->N4(2.7500021759579849)
No.70:N3->N6(3.9348886644053684)
No.71:N3->N6(3.9348886644405408)
No.72:N3->N6(3.9348886644047147)
No.73:N3->N6(2.4817156888833787)
No.74:N3->N6(3.9348886644047147)
No.75:N3->N6(3.9348886644405408)
No.76:N3->N6(3.9348886644053684)
No.77:N3->C7(3.2960831650503657)
No.78:N3->C7(3.2960831650923548)
No.79:N3->C7(3.2960831650495854)
No.80:N3->C7(1.2408578444416893)
No.81:N3->C7(3.2960831650495854)
No.82:N3->C7(3.2960831650923548)
No.83:N3->C7(3.2960831650503657)
No.84:N3->C8(3.7868187129858595)
No.85:N3->C8(3.7868186415777685)
No.86:N3->C8(3.7868186021681294)
No.87:N4->N4(3.0535939548040698)
No.88:N4->N4(3.0535939548493936)
No.89:N4->N4(3.0535939548032278)
No.90:N4->N4(3.0535939548032278)
No.91:N4->N4(3.0535939548493936)
No.92:N4->N4(3.0535939548040698)
No.93:N4->N5(3.9348890119628175)
No.94:N4->N5(3.9348890119979898)
No.95:N4->N5(3.9348890119621638)
No.96:N4->N5(2.4817162399536654)
No.97:N4->N5(3.9348890119621638)
No.98:N4->N5(3.9348890119979898)
No.99:N4->N5(3.9348890119628175)
No.100:N4->C7(3.7868183583151063)
No.101:N4->C7(3.7868183977247476)
No.102:N4->C7(3.786818469132843)
No.103:N4->C8(3.2960832687795376)
No.104:N4->C8(3.2960832688215267)
No.105:N4->C8(3.2960832687787569)
No.106:N4->C8(1.2408581199768327)
No.107:N4->C8(3.2960832687787569)
No.108:N4->C8(3.2960832688215267)
No.109:N4->C8(3.2960832687795376)
No.110:N5->N5(3.0535939548040698)
No.111:N5->N5(3.0535939548493936)
No.112:N5->N5(3.0535939548032278)
No.113:N5->N5(3.0535939548032278)
No.114:N5->N5(3.0535939548493936)
No.115:N5->N5(3.0535939548040698)
No.116:N5->N6(2.7500021759579849)
No.117:N5->N6(2.7500022302259981)
No.118:N5->N6(2.7500023285566408)
No.119:N5->C7(3.7868183583151063)
No.120:N5->C7(3.7868183977247476)
No.121:N5->C7(3.786818469132843)
No.122:N5->C8(3.2960832687795376)
No.123:N5->C8(3.2960832688215267)
No.124:N5->C8(3.2960832687787569)
No.125:N5->C8(1.2408581199768327)
No.126:N5->C8(3.2960832687787569)
No.127:N5->C8(3.2960832688215267)
No.128:N5->C8(3.2960832687795376)
No.129:N6->N6(3.0535939548040698)
No.130:N6->N6(3.0535939548493936)
No.131:N6->N6(3.0535939548032278)
No.132:N6->N6(3.0535939548032278)
No.133:N6->N6(3.0535939548493936)
No.134:N6->N6(3.0535939548040698)
No.135:N6->C7(3.2960831650503657)
No.136:N6->C7(3.2960831650923548)
No.137:N6->C7(3.2960831650495854)
No.138:N6->C7(1.2408578444416889)
No.139:N6->C7(3.2960831650495854)
No.140:N6->C7(3.2960831650923548)
No.141:N6->C7(3.2960831650503657)
No.142:N6->C8(3.7868187129858595)
No.143:N6->C8(3.7868186415777685)
No.144:N6->C8(3.7868186021681294)
No.145:C7->C7(3.0535939548040698)
No.146:C7->C7(3.0535939548493936)
No.147:C7->C7(3.0535939548032278)
No.148:C7->C7(3.0535939548032278)
No.149:C7->C7(3.0535939548493936)
No.150:C7->C7(3.0535939548040698)
No.151:C8->C8(3.0535939548040698)
No.152:C8->C8(3.0535939548493936)
No.153:C8->C8(3.0535939548032278)
No.154:C8->C8(3.0535939548032278)
No.155:C8->C8(3.0535939548493936)
No.156:C8->C8(3.0535939548040698)
-15.03759   0.00000  -0.34465   0.00000  -0.04460   0.00000  -0.04449   0.00000  -0.04446   0.00000  -0.04446   0.00000  -0.04449   0.00000  -0.04460   0.00000  -0.00086   0.00000  -0.30631   0.00000  -0.00070   0.00000  -0.30766   0.00000  -0.30646   0.00000  -0.00088   0.00000  -0.00087   0.00000  -0.30740   0.00000  -0.30886   0.00000  -0.00072   0.00000  -0.30725   0.00000  -0.00084   0.00000  -0.00882   0.00000  -0.00933   0.00000  -0.00882   0.00000  -0.00862   0.00000  -0.00906   0.00000  -0.00861   0.00000  -0.14484   0.00000  -0.14569   0.00000  -0.14479   0.00000  -0.14498   0.00000  -0.14592   0.00000  -0.14501   0.00000  -0.04455   0.00000  -0.04456   0.00000  -0.04453   0.00000  -0.04453   0.00000  -0.04456   0.00000  -0.04455   0.00000  -0.00927   0.00000  -0.00886   0.00000  -0.00924   0.00000  -0.00893   0.00000  -0.00851   0.00000  -0.00897   0.00000  -0.00088   0.00000  -0.30726   0.00000  -0.30546   0.00000  -0.00091   0.00000  -0.30723   0.00000  -0.00086   0.00000  -0.00086   0.00000  -0.30793   0.00000  -0.00096   0.00000  -0.30641   0.00000  -0.30796   0.00000  -0.00088   0.00000  -0.14603   0.00000  -0.14535   0.00000  -0.14594   0.00000  -0.14540   0.00000  -0.14476   0.00000  -0.14550   0.00000  -0.00250   0.00000  -0.00232   0.00000  -0.00233   0.00000  -0.00233   0.00000  -0.00232   0.00000  -0.00250   0.00000   0.01006   0.00000   0.00614   0.00000   0.00972   0.00000  -0.00107   0.00000  -0.00135   0.00000  -0.00084   0.00000  -0.43197   0.00000  -0.00132   0.00000  -0.00084   0.00000  -0.00106   0.00000  -0.00241   0.00000  -0.00267   0.00000  -0.00205   0.00000 -11.62958   0.00000  -0.00262   0.00000  -0.00205   0.00000  -0.00239   0.00000  -0.00632   0.00000  -0.00561   0.00000  -0.00617   0.00000  -0.00243   0.00000  -0.00237   0.00000  -0.00238   0.00000  -0.00238   0.00000  -0.00237   0.00000  -0.00243   0.00000  -0.00107   0.00000  -0.00086   0.00000  -0.00133   0.00000  -0.42930   0.00000  -0.00086   0.00000  -0.00138   0.00000  -0.00110   0.00000  -0.00670   0.00000  -0.00614   0.00000  -0.00684   0.00000  -0.00249   0.00000  -0.00213   0.00000  -0.00278   0.00000 -11.61451   0.00000  -0.00214   0.00000  -0.00284   0.00000  -0.00253   0.00000  -0.00219   0.00000  -0.00228   0.00000  -0.00228   0.00000  -0.00228   0.00000  -0.00228   0.00000  -0.00219   0.00000   0.00673   0.00000   0.01001   0.00000   0.00689   0.00000  -0.00612   0.00000  -0.00648   0.00000  -0.00623   0.00000  -0.00260   0.00000  -0.00290   0.00000  -0.00222   0.00000 -11.62222   0.00000  -0.00285   0.00000  -0.00222   0.00000  -0.00257   0.00000  -0.00225   0.00000  -0.00246   0.00000  -0.00248   0.00000  -0.00248   0.00000  -0.00246   0.00000  -0.00225   0.00000  -0.00262   0.00000  -0.00229   0.00000  -0.00293   0.00000 -11.60114   0.00000  -0.00228   0.00000  -0.00298   0.00000  -0.00263   0.00000  -0.00664   0.00000  -0.00704   0.00000  -0.00655   0.00000  -0.01631   0.00000  -0.01646   0.00000  -0.01654   0.00000  -0.01654   0.00000  -0.01646   0.00000  -0.01631   0.00000  -0.01629   0.00000  -0.01646   0.00000  -0.01653   0.00000  -0.01653   0.00000  -0.01646   0.00000  -0.01629
-14.98747   0.00000  -0.34465   0.00000  -0.04460   0.00000  -0.04449   0.00000  -0.04446   0.00000  -0.04446   0.00000  -0.04449   0.00000  -0.04460   0.00000  -0.00086   0.00000  -0.30631   0.00000  -0.00070   0.00000  -0.30766   0.00000  -0.30646   0.00000  -0.00088   0.00000  -0.00087   0.00000  -0.30740   0.00000  -0.30886   0.00000  -0.00072   0.00000  -0.30725   0.00000  -0.00084   0.00000  -0.00882   0.00000  -0.00933   0.00000  -0.00882   0.00000  -0.00862   0.00000  -0.00906   0.00000  -0.00861   0.00000  -0.14484   0.00000  -0.14569   0.00000  -0.14479   0.00000  -0.14498   0.00000  -0.14592   0.00000  -0.14501   0.00000  -0.04455   0.00000  -0.04456   0.00000  -0.04453   0.00000  -0.04453   0.00000  -0.04456   0.00000  -0.04455   0.00000  -0.00927   0.00000  -0.00886   0.00000  -0.00924   0.00000  -0.00893   0.00000  -0.00851   0.00000  -0.00897   0.00000  -0.00088   0.00000  -0.30726   0.00000  -0.30546   0.00000  -0.00091   0.00000  -0.30723   0.00000  -0.00086   0.00000  -0.00086   0.00000  -0.30793   0.00000  -0.00096   0.00000  -0.30641   0.00000  -0.30796   0.00000  -0.00088   0.00000  -0.14603   0.00000  -0.14535   0.00000  -0.14594   0.00000  -0.14540   0.00000  -0.14476   0.00000  -0.14550   0.00000  -0.00250   0.00000  -0.00232   0.00000  -0.00233   0.00000  -0.00233   0.00000  -0.00232   0.00000  -0.00250   0.00000   0.01006   0.00000   0.00614   0.00000   0.00972   0.00000  -0.00107   0.00000  -0.00135   0.00000  -0.00084   0.00000  -0.43197   0.00000  -0.00132   0.00000  -0.00084   0.00000  -0.00106   0.00000  -0.00241   0.00000  -0.00267   0.00000  -0.00205   0.00000 -11.62958   0.00000  -0.00262   0.00000  -0.00205   0.00000  -0.00239   0.00000  -0.00632   0.00000  -0.00561   0.00000  -0.00617   0.00000  -0.00243   0.00000  -0.00237   0.00000  -0.00238   0.00000  -0.00238   0.00000  -0.00237   0.00000  -0.00243   0.00000  -0.00107   0.00000  -0.00086   0.00000  -0.00133   0.00000  -0.42930   0.00000  -0.00086   0.00000  -0.00138   0.00000  -0.00110   0.00000  -0.00670   0.00000  -0.00614   0.00000  -0.00684   0.00000  -0.00249   0.00000  -0.00213   0.00000  -0.00278   0.00000 -11.61451   0.00000  -0.00214   0.00000  -0.00284   0.00000  -0.00253   0.00000  -0.00219   0.00000  -0.00228   0.00000  -0.00228   0.00000  -0.00228   0.00000  -0.00228   0.00000  -0.00219   0.00000   0.00673   0.00000   0.01001   0.00000   0.00689   0.00000  -0.00612   0.00000  -0.00648   0.00000  -0.00623   0.00000  -0.00260   0.00000  -0.00290   0.00000  -0.00222   0.00000 -11.62222   0.00000  -0.00285   0.00000  -0.00222   0.00000  -0.00257   0.00000  -0.00225   0.00000  -0.00246   0.00000  -0.00248   0.00000  -0.00248   0.00000  -0.00246   0.00000  -0.00225   0.00000  -0.00262   0.00000  -0.00229   0.00000  -0.00293   0.00000 -11.60114   0.00000  -0.00228   0.00000  -0.00298   0.00000  -0.00263   0.00000  -0.00664   0.00000  -0.00704   0.00000  -0.00655   0.00000  -0.01631   0.00000  -0.01646   0.00000  -0.01654   0.00000  -0.01654   0.00000  -0.01646   0.00000  -0.01631   0.00000  -0.01629   0.00000  -0.01646   0.00000  -0.01653   0.00000  -0.01653   0.00000  -0.01646   0.00000  -0.01629
-14.93734   0.00000  -0.34465   0.00000  -0.04460   0.00000  -0.04449   0.00000  -0.04446   0.00000  -0.04446   0.00000  -0.04449   0.00000  -0.04460   0.00000  -0.00086   0.00000  -0.30631   0.00000  -0.00070   0.00000  -0.30766   0.00000  -0.30646   0.00000  -0.00088   0.00000  -0.00087   0.00000  -0.30740   0.00000  -0.30886   0.00000  -0.00072   0.00000  -0.30725   0.00000  -0.00084   0.00000  -0.00882   0.00000  -0.00933   0.00000  -0.00882   0.00000  -0.00862   0.00000  -0.00906   0.00000  -0.00861   0.00000  -0.14484   0.00000  -0.14569   0.00000  -0.14479   0.00000  -0.14498   0.00000  -0.14592   0.00000  -0.14501   0.00000  -0.04455   0.00000  -0.04456   0.00000  -0.04453   0.00000  -0.04453   0.00000  -0.04456   0.00000  -0.04455   0.00000  -0.00927   0.00000  -0.00886   0.00000  -0.00924   0.00000  -0.00893   0.00000  -0.00851   0.00000  -0.00897   0.00000  -0.00088   0.00000  -0.30726   0.00000  -0.30546   0.00000  -0.00091   0.00000  -0.30723   0.00000  -0.00086   0.00000  -0.00086   0.00000  -0.30793   0.00000  -0.00096   0.00000  -0.30641   0.00000  -0.30796   0.00000  -0.00088   0.00000  -0.14603   0.00000  -0.14535   0.00000  -0.14594   0.00000  -0.14540   0.00000  -0.14476   0.00000  -0.14550   0.00000  -0.00250   0.00000  -0.00232   0.00000  -0.00233   0.00000  -0.00233   0.00000  -0.00232   0.00000  -0.00250   0.00000   0.01006   0.00000   0.00614   0.00000   0.00972   0.00000  -0.00107   0.00000  -0.00135   0.00000  -0.00084   0.00000  -0.43197   0.00000  -0.00132   0.00000  -0.00084   0.00000  -0.00106   0.00000  -0.00241   0.00000  -0.00267   0.00000  -0.00205   0.00000 -11.62958   0.00000  -0.00262   0.00000  -0.00205   0.00000  -0.00239   0.00000  -0.00632   0.00000  -0.00561   0.00000  -0.00617   0.00000  -0.00243   0.00000  -0.00237   0.00000  -0.00238   0.00000  -0.00238   0.00000  -0.00237   0.00000  -0.00243   0.00000  -0.00107   0.00000  -0.00086   0.00000  -0.00133   0.00000  -0.42930   0.00000  -0.00086   0.00000  -0.00138   0.00000  -0.00110   0.00000  -0.00670   0.00000  -0.00614   0.00000  -0.00684   0.00000  -0.00249   0.00000  -0.00213   0.00000  -0.00278   0.00000 -11.61451   0.00000  -0.00214   0.00000  -0.00284   0.00000  -0.00253   0.00000  -0.00219   0.00000  -0.00228   0.00000  -0.00228   0.00000  -0.00228   0.00000  -0.00228   0.00000  -0.00219   0.00000   0.00673   0.00000   0.01001   0.00000   0.00689   0.00000  -0.00612   0.00000  -0.00648   0.00000  -0.00623   0.00000  -0.00260   0.00000  -0.00290   0.00000  -0.00222   0.00000 -11.62222   0.00000  -0.00285   0.00000  -0.00222   0.00000  -0.00257   0.00000  -0.00225   0.00000  -0.00246   0.00000  -0.00248   0.00000  -0.00248   0.00000  -0.00246   0.00000  -0.00225   0.00000  -0.00262   0.00000  -0.00229   0.00000  -0.00293   0.00000 -11.60114   0.00000  -0.00228   0.00000  -0.00298   0.00000  -0.00263   0.00000  -0.00664   0.00000  -0.00704   0.00000  -0.00655   0.00000  -0.01631   0.00000  -0.01646   0.00000  -0.01654   0.00000  -0.01654   0.00000  -0.01646   0.00000  -0.01631   0.00000  -0.01629   0.00000  -0.01646   0.00000  -0.01653   0.00000  -0.01653   0.00000  -0.01646   0.00000  -0.01629
-14.88722   0.00000  -0.34465   0.00000  -0.04460   0.00000  -0.04449   0.00000  -0.04446   0.00000  -0.04446   0.00000  -0.04449   0.00000  -0.04460   0.00000  -0.00086   0.00000  -0.30631   0.00000  -0.00070   0.00000  -0.30766   0.00000  -0.30646   0.00000  -0.00088   0.00000  -0.00087   0.00000  -0.30740   0.00000  -0.30886   0.00000  -0.00072   0.00000  -0.30725   0.00000  -0.00084   0.00000  -0.00882   0.00000  -0.00933   0.00000  -0.00882   0.00000  -0.00862   0.00000  -0.00906   0.00000  -0.00861   0.00000  -0.14484   0.00000  -0.14569   0.00000  -0.14479   0.00000  -0.14498   0.00000  -0.14592   0.00000  -0.14501   0.00000  -0.04455   0.00000  -0.04456   0.00000  -0.04453   0.00000  -0.04453   0.00000  -0.04456   0.00000  -0.04455   0.00000  -0.00927   0.00000  -0.00886   0.00000  -0.00924   0.00000  -0.00893   0.00000  -0.00851   0.00000  -0.00897   0.00000  -0.00088   0.00000  -0.30726   0.00000  -0.30546   0.00000  -0.00091   0.00000  -0.30723   0.00000  -0.00086   0.00000  -0.00086   0.00000  -0.30793   0.00000  -0.00096   0.00000  -0.30641   0.00000  -0.30796   0.00000  -0.00088   0.00000  -0.14603   0.00000  -0.14535   0.00000  -0.14594   0.00000  -0.14540   0.00000  -0.14476   0.00000  -0.14550   0.00000  -0.00250   0.00000  -0.00232   0.00000  -0.00233   0.00000  -0.00233   0.00000  -0.00232   0.00000  -0.00250   0.00000   0.01006   0.00000   0.00614   0.00000   0.00972   0.00000  -0.00107   0.00000  -0.00135   0.00000  -0.00084   0.00000  -0.43197   0.00000  -0.00132   0.00000  -0.00084   0.00000  -0.00106   0.00000  -0.00241   0.00000  -0.00267   0.00000  -0.00205   0.00000 -11.62958   0.00000  -0.00262   0.00000  -0.00205   0.00000  -0.00239   0.00000  -0.00632   0.00000  -0.00561   0.00000  -0.00617   0.00000  -0.00243   0.00000  -0.00237   0.00000  -0.00238   0.00000  -0.00238   0.00000  -0.00237   0.00000  -0.00243   0.00000  -0.00107   0.00000  -0.00086   0.00000  -0.00133   0.00000  -0.42930   0.00000  -0.00086   0.00000  -0.00138   0.00000  -0.00110   0.00000  -0.00670   0.00000  -0.00614   0.00000  -0.00684   0.00000  -0.00249   0.00000  -0.00213   0.00000  -0.00278   0.00000 -11.61451   0.00000  -0.00214   0.00000  -0.00284   0.00000  -0.00253   0.00000  -0.00219   0.00000  -0.00228   0.00000  -0.00228   0.00000  -0.00228   0.00000  -0.00228   0.00000  -0.00219   0.00000   0.00673   0.00000   0.01001   0.00000   0.00689   0.00000  -0.00612   0.00000  -0.00648   0.00000  -0.00623   0.00000  -0.00260   0.00000  -0.00290   0.00000  -0.00222   0.00000 -11.62222   0.00000  -0.00285   0.00000  -0.00222   0.00000  -0.00257   0.00000  -0.00225   0.00000  -0.00246   0.00000  -0.00248   0.00000  -0.00248   0.00000  -0.00246   0.00000  -0.00225   0.00000  -0.00262   0.00000  -0.00229   0.00000  -0.00293   0.00000 -11.60114   0.00000  -0.00228   0.00000  -0.00298   0.00000  -0.00263   0.00000  -0.00664   0.00000  -0.00704   0.00000  -0.00655   0.00000  -0.01631   0.00000  -0.01646   0.00000  -0.01654   0.00000  -0.01654   0.00000  -0.01646   0.00000  -0.01631   0.00000  -0.01629   0.00000  -0.01646   0.00000  -0.01653   0.00000  -0.01653   0.00000  -0.01646   0.00000  -0.01629
-14.83709   0.00000  -0.34465   0.00000  -0.04460   0.00000  -0.04449   0.00000  -0.04446   0.00000  -0.04446   0.00000  -0.04449   0.00000  -0.04460   0.00000  -0.00086   0.00000  -0.30631   0.00000  -0.00070   0.00000  -0.30766   0.00000  -0.30646   0.00000  -0.00088   0.00000  -0.00087   0.00000  -0.30740   0.00000  -0.30886   0.00000  -0.00072   0.00000  -0.30725   0.00000  -0.00084   0.00000  -0.00882   0.00000  -0.00933   0.00000  -0.00882   0.00000  -0.00862   0.00000  -0.00906   0.00000  -0.00861   0.00000  -0.14484   0.00000  -0.14569   0.00000  -0.14479   0.00000  -0.14498   0.00000  -0.14592   0.00000  -0.14501   0.00000  -0.04455   0.00000  -0.04456   0.00000  -0.04453   0.00000  -0.04453   0.00000  -0.04456   0.00000  -0.04455   0.00000  -0.00927   0.00000  -0.00886   0.00000  -0.00924   0.00000  -0.00893   0.00000  -0.00851   0.00000  -0.00897   0.00000  -0.00088   0.00000  -0.30726   0.00000  -0.30546   0.00000  -0.00091   0.00000  -0.30723   0.00000  -0.00086   0.00000  -0.00086   0.00000  -0.30793   0.00000  -0.00096   0.00000  -0.30641   0.00000  -0.30796   0.00000  -0.00088   0.00000  -0.14603   0.00000  -0.14535   0.00000  -0.14594   0.00000  -0.14540   0.00000  -0.14476   0.00000  -0.14550   0.00000  -0.00250   0.00000  -0.00232   0.00000  -0.00233   0.00000  -0.00233   0.00000  -0.00232   0.00000  -0.00250   0.00000   0.01006   0.00000   0.00614   0.00000   0.00972   0.00000  -0.00107   0.00000  -0.00135   0.00000  -0.00084   0.00000  -0.43197   0.00000  -0.00132   0.00000  -0.00084   0.00000  -0.00106   0.00000  -0.00241   0.00000  -0.00267   0.00000  -0.00205   0.00000 -11.62958   0.00000  -0.00262   0.00000  -0.00205   0.00000  -0.00239   0.00000  -0.00632   0.00000  -0.00561   0.00000  -0.00617   0.00000  -0.00243   0.00000  -0.00237   0.00000  -0.00238   0.00000  -0.00238   0.00000  -0.00237   0.00000  -0.00243   0.00000  -0.00107   0.00000  -0.00086   0.00000  -0.00133   0.00000  -0.42930   0.00000  -0.00086   0.00000  -0.00138   0.00000  -0.00110   0.00000  -0.00670   0.00000  -0.00614   0.00000  -0.00684   0.00000  -0.00249   0.00000  -0.00213   0.00000  -0.00278   0.00000 -11.61451   0.00000  -0.00214   0.00000  -0.00284   0.00000  -0.00253   0.00000  -0.00219   0.00000  -0.00228   0.00000  -0.00228   0.00000  -0.00228   0.00000  -0.00228   0.00000  -0.00219   0.00000   0.00673   0.00000   0.01001   0.00000   0.00689   0.00000  -0.00612   0.00000  -0.00648   0.00000  -0.00623   0.00000  -0.00260   0.00000  -0.00290   0.00000  -0.00222   0.00000 -11.62222   0.00000  -0.00285   0.00000  -0.00222   0.00000  -0.00257   0.00000  -0.00225   0.00000  -0.00246   0.00000  -0.00248   0.00000  -0.00248   0.00000  -0.00246   0.00000  -0.00225   0.00000  -0.00262   0.00000  -0.00229   0.00000  -0.00293   0.00000 -11.60114   0.00000  -0.00228   0.00000  -0.00298   0.00000  -0.00263   0.00000  -0.00664   0.00000  -0.00704   0.00000  -0.00655   0.00000  -0.01631   0.00000  -0.01646   0.00000  -0.01654   0.00000  -0.01654   0.00000  -0.01646   0.00000  -0.01631   0.00000  -0.01629   0.00000  -0.01646   0.00000  -0.01653   0.00000  -0.01653   0.00000  -0.01646   0.00000  -0.01629
-14.78697   0.00000  -0.34465   0.00000  -0.04460   0.00000  -0.04449   0.00000  -0.04446   0.00000  -0.04446   0.00000  -0.04449   0.00000  -0.04460   0.00000  -0.00086   0.00000  -0.30631   0.00000  -0.00070   0.00000  -0.30766   0.00000  -0.30646   0.00000  -0.00088   0.00000  -0.00087   0.00000  -0.30740   0.00000  -0.30886   0.00000  -0.00072   0.00000  -0.30725   0.00000  -0.00084   0.00000  -0.00882   0.00000  -0.00933   0.00000  -0.00882   0.00000  -0.00862   0.00000  -0.00906   0.00000  -0.00861   0.00000  -0.14484   0.00000  -0.14569   0.00000  -0.14479   0.00000  -0.14498   0.00000  -0.14592   0.00000  -0.14501   0.00000  -0.04455   0.00000  -0.04456   0.00000  -0.04453   0.00000  -0.04453   0.00000  -0.04456   0.00000  -0.04455   0.00000  -0.00927   0.00000  -0.00886   0.00000  -0.00924   0.00000  -0.00893   0.00000  -0.00851   0.00000  -0.00897   0.00000  -0.00088   0.00000  -0.30726   0.00000  -0.30546   0.00000  -0.00091   0.00000  -0.30723   0.00000  -0.00086   0.00000  -0.00086   0.00000  -0.30793   0.00000  -0.00096   0.00000  -0.30641   0.00000  -0.30796   0.00000  -0.00088   0.00000  -0.14603   0.00000  -0.14535   0.00000  -0.14594   0.00000  -0.14540   0.00000  -0.14476   0.00000  -0.14550   0.00000  -0.00250   0.00000  -0.00232   0.00000  -0.00233   0.00000  -0.00233   0.00000  -0.00232   0.00000  -0.00250   0.00000   0.01006   0.00000   0.00614   0.00000   0.00972   0.00000  -0.00107   0.00000  -0.00135   0.00000  -0.00084   0.00000  -0.43197   0.00000  -0.00132   0.00000  -0.00084   0.00000  -0.00106   0.00000  -0.00241   0.00000  -0.00267   0.00000  -0.00205   0.00000 -11.62958   0.00000  -0.00262   0.00000  -0.00205   0.00000  -0.00239   0.00000  -0.00632   0.00000  -0.00561   0.00000  -0.00617   0.00000  -0.00243   0.00000  -0.00237   0.00000  -0.00238   0.00000  -0.00238   0.00000  -0.00237   0.00000  -0.00243   0.00000  -0.00107   0.00000  -0.00086   0.00000  -0.00133   0.00000  -0.42930   0.00000  -0.00086   0.00000  -0.00138   0.00000  -0.00110   0.00000  -0.00670   0.00000  -0.00614   0.00000  -0.00684   0.00000  -0.00249   0.00000  -0.00213   0.00000  -0.00278   0.00000 -11.61451   0.00000  -0.00214   0.00000  -0.00284   0.00000  -0.00253   0.00000  -0.00219   0.00000  -0.00228   0.00000  -0.00228   0.00000  -0.00228   0.00000  -0.00228   0.00000  -0.00219   0.00000   0.00673   0.00000   0.01001   0.00000   0.00689   0.00000  -0.00612   0.00000  -0.00648   0.00000  -0.00623   0.00000  -0.00260   0.00000  -0.00290   0.00000  -0.00222   0.00000 -11.62222   0.00000  -0.00285   0.00000  -0.00222   0.00000  -0.00257   0.00000  -0.00225   0.00000  -0.00246   0.00000  -0.00248   0.00000  -0.00248   0.00000  -0.00246   0.00000  -0.00225   0.00000  -0.00262   0.00000  -0.00229   0.00000  -0.00293   0.00000 -11.60114   0.00000  -0.00228   0.00000  -0.00298   0.00000  -0.00263   0.00000  -0.00664   0.00000  -0.00704   0.00000  -0.00655   0.00000  -0.01631   0.00000  -0.01646   0.00000  -0.01654   0.00000  -0.01654   0.00000  -0.01646   0.00000  -0.01631   0.00000  -0.01629   0.00000  -0.01646   0.00000  -0.01653   0.00000  -0.01653   0.00000  -0.01646   0.00000  -0.01629
-14.73684   0.00000  -0.34465   0.00000  -0.04460   0.00000  -0.04449   0.00000  -0.04446   0.00000  -0.04446   0.00000  -0.04449   0.00000  -0.04460   0.00000  -0.00086   0.00000  -0.30631   0.00000  -0.00070   0.00000  -0.30766   0.00000  -0.30646   0.00000  -0.00088   0.00000  -0.00087   0.00000  -0.30740   0.00000  -0.30886   0.00000  -0.00072   0.00000  -0.30725   0.00000  -0.00084   0.00000  -0.00882   0.00000  -0.00933   0.00000  -0.00882   0.00000  -0.00862   0.00000  -0.00906   0.00000  -0.00861   0.00000  -0.14484   0.00000  -0.14569   0.00000  -0.14479   0.00000  -0.14498   0.00000  -0.14592   0.00000  -0.14501   0.00000  -0.04455   0.00000  -0.04456   0.00000  -0.04453   0.00000  -0.04453   0.00000  -0.04456   0.00000  -0.04455   0.00000  -0.00927   0.00000  -0.00886   0.00000  -0.00924   0.00000  -0.00893   0.00000  -0.00851   0.00000  -0.00897   0.00000  -0.00088   0.00000  -0.30726   0.00000  -0.30546   0.00000  -0.00091   0.00000  -0.30723   0.00000  -0.00086   0.00000  -0.00086   0.00000  -0.30793   0.00000  -0.00096   0.00000  -0.30641   0.00000  -0.30796   0.00000  -0.00088   0.00000  -0.14603   0.00000  -0.14535   0.00000  -0.14594   0.00000  -0.14540   0.00000  -0.14476   0.00000  -0.14550   0.00000  -0.00250   0.00000  -0.00232   0.00000  -0.00233   0.00000  -0.00233   0.00000  -0.00232   0.00000  -0.00250   0.00000   0.01006   0.00000   0.00614   0.00000   0.00972   0.00000  -0.00107   0.00000  -0.00135   0.00000  -0.00084   0.00000  -0.43197   0.00000  -0.00132   0.00000  -0.00084   0.00000  -0.00106   0.00000  -0.00241   0.00000  -0.00267   0.00000  -0.00205   0.00000 -11.62958   0.00000  -0.00262   0.00000  -0.00205   0.00000  -0.00239   0.00000  -0.00632   0.00000  -0.00561   0.00000  -0.00617   0.00000  -0.00243   0.00000  -0.00237   0.00000  -0.00238   0.00000  -0.00238   0.00000  -0.00237   0.00000  -0.00243   0.00000  -0.00107   0.00000  -0.00086   0.00000  -0.00133   0.00000  -0.42930   0.00000  -0.00086   0.00000  -0.00138   0.00000  -0.00110   0.00000  -0.00670   0.00000  -0.00614   0.00000  -0.00684   0.00000  -0.00249   0.00000  -0.00213   0.00000  -0.00278   0.00000 -11.61451   0.00000  -0.00214   0.00000  -0.00284   0.00000  -0.00253   0.00000  -0.00219   0.00000  -0.00228   0.00000  -0.00228   0.00000  -0.00228   0.00000  -0.00228   0.00000  -0.00219   0.00000   0.00673   0.00000   0.01001   0.00000   0.00689   0.00000  -0.00612   0.00000  -0.00648   0.00000  -0.00623   0.00000  -0.00260   0.00000  -0.00290   0.00000  -0.00222   0.00000 -11.62222   0.00000  -0.00285   0.00000  -0.00222   0.00000  -0.00257   0.00000  -0.00225   0.00000  -0.00246   0.00000  -0.00248   0.00000  -0.00248   0.00000  -0.00246   0.00000  -0.00225   0.00000  -0.00262   0.00000  -0.00229   0.00000  -0.00293   0.00000 -11.60114   0.00000  -0.00228   0.00000  -0.00298   0.00000  -0.00263   0.00000  -0.00664   0.00000  -0.00704   0.00000  -0.00655   0.00000  -0.01631   0.00000  -0.01646   0.00000  -0.01654   0.00000  -0.01654   0.00000  -0.01646   0.00000  -0.01631   0.00000  -0.01629   0.00000  -0.01646   0.00000  -0.01653   0.00000  -0.01653   0.00000  -0.01646   0.00000  -0.01629