ESCALE ; pCOHP file generated by LOBSTER. Energy is shifted such that the Fermi level lies at 0 eV.
        31          1        401  -8.75259e+00   1.12975e+01   6.28500e+00 
Average
No.1:CN2_1->CN2_1(3.0535939548040698)
No.2:CN2_1->CN2_1(3.0535939548493936)
No.3:CN2_1->CN2_1(3.0535939548032278)
No.4:CN2_1->CN2_1(3.0535939548032278)
No.5:CN2_1->CN2_1(3.0535939548493936)
No.6:CN2_1->CN2_1(3.0535939548040698)
No.7:CN2_1->Ni_1(3.6805125278532689)
No.8:CN2_1->Ni_1(2.054686456952262)
No.9:CN2_1->Ni_1(3.6805125304368764)
No.10:CN2_1->Ni_1(2.0546865908267038)
No.11:CN2_1->Ni_1(2.0546865930733249)
No.12:CN2_1->Ni_1(3.6805126799120251)
No.13:CN2_1->Ni_2(3.6805125278532689)
No.14:CN2_1->Ni_2(2.054686456952262)
No.15:CN2_1->Ni_2(3.6805125304368764)
No.16:CN2_1->Ni_2(2.0546865908267038)
No.17:CN2_1->Ni_2(2.0546865930733249)
No.18:CN2_1->Ni_2(3.6805126799120251)
No.19:CN2_1->N_3(2.7500021759579849)
No.20:CN2_1->N_3(2.7500022302259981)
No.21:CN2_1->N_3(2.7500023285566408)
No.22:CN2_1->N_6(2.7500021759579849)
No.23:CN2_1->N_6(2.7500022302259981)
No.24:CN2_1->N_6(2.7500023285566408)
No.25:CN2_1->C_7(3.7868183583151063)
No.26:CN2_1->C_7(3.7868183977247476)
No.27:CN2_1->C_7(3.786818469132843)
No.28:CN2_1->C_7(3.7868183583151063)
No.29:CN2_1->C_7(3.7868183977247476)
No.30:CN2_1->C_7(3.786818469132843)
-15.03759   0.00000  -0.10092   0.00000  -0.03328   0.00000  -0.03343   0.00000  -0.03338   0.00000  -0.03338   0.00000  -0.03343   0.00000  -0.03328   0.00000  -0.00243   0.00000  -0.46108   0.00000  -0.00231   0.00000  -0.46410   0.00000  -0.46120   0.00000  -0.00243   0.00000  -0.00232   0.00000  -0.46171   0.00000  -0.00246   0.00000  -0.45873   0.00000  -0.46159   0.00000  -0.00231   0.00000   0.00324   0.00000   0.00020   0.00000   0.00340   0.00000  -0.00034   0.00000   0.00249   0.00000  -0.00030   0.00000  -0.00921   0.00000  -0.00873   0.00000  -0.00919   0.00000  -0.00861   0.00000  -0.00896   0.00000  -0.00860
-14.98747   0.00000  -0.10092   0.00000  -0.03328   0.00000  -0.03343   0.00000  -0.03338   0.00000  -0.03338   0.00000  -0.03343   0.00000  -0.03328   0.00000  -0.00243   0.00000  -0.46108   0.00000  -0.00231   0.00000  -0.46410   0.00000  -0.46120   0.00000  -0.00243   0.00000  -0.00232   0.00000  -0.46171   0.00000  -0.00246   0.00000  -0.45873   0.00000  -0.46159   0.00000  -0.00231   0.00000   0.00324   0.00000   0.00020   0.00000   0.00340   0.00000  -0.00034   0.00000   0.00249   0.00000  -0.00030   0.00000  -0.00921   0.00000  -0.00873   0.00000  -0.00919   0.00000  -0.00861   0.00000  -0.00896   0.00000  -0.00860
-14.93734   0.00000  -0.10092   0.00000  -0.03328   0.00000  -0.03343   0.00000  -0.03338   0.00000  -0.03338   0.00000  -0.03343   0.00000  -0.03328   0.00000  -0.00243   0.00000  -0.46108   0.00000  -0.00231   0.00000  -0.46410   0.00000  -0.46120   0.00000  -0.00243   0.00000  -0.00232   0.00000  -0.46171   0.00000  -0.00246   0.00000  -0.45873   0.00000  -0.46159   0.00000  -0.00231   0.00000   0.00324   0.00000   0.00020   0.00000   0.00340   0.00000  -0.00034   0.00000   0.00249   0.00000  -0.00030   0.00000  -0.00921   0.00000  -0.00873   0.00000  -0.00919   0.00000  -0.00861   0.00000  -0.00896   0.00000  -0.00860
-14.88722   0.00000  -0.10092   0.00000  -0.03328   0.00000  -0.03343   0.00000  -0.03338   0.00000  -0.03338   0.00000  -0.03343   0.00000  -0.03328   0.00000  -0.00243   0.00000  -0.46108   0.00000  -0.00231   0.00000  -0.46410   0.00000  -0.46120   0.00000  -0.00243   0.00000  -0.00232   0.00000  -0.46171   0.00000  -0.00246   0.00000  -0.45873   0.00000  -0.46159   0.00000  -0.00231   0.00000   0.00324   0.00000   0.00020   0.00000   0.00340   0.00000  -0.00034   0.00000   0.00249   0.00000  -0.00030   0.00000  -0.00921   0.00000  -0.00873   0.00000  -0.00919   0.00000  -0.00861   0.00000  -0.00896   0.00000  -0.00860
-14.83709   0.00000  -0.10092   0.00000  -0.03328   0.00000  -0.03343   0.00000  -0.03338   0.00000  -0.03338   0.00000  -0.03343   0.00000  -0.03328   0.00000  -0.00243   0.00000  -0.46108   0.00000  -0.00231   0.00000  -0.46410   0.00000  -0.46120   0.00000  -0.00243   0.00000  -0.00232   0.00000  -0.46171   0.00000  -0.00246   0.00000  -0.45873   0.00000  -0.46159   0.00000  -0.00231   0.00000   0.00324   0.00000   0.00020   0.00000   0.00340   0.00000  -0.00034   0.00000   0.00249   0.00000  -0.00030   0.00000  -0.00921   0.00000  -0.00873   0.00000  -0.00919   0.00000  -0.00861   0.00000  -0.00896   0.00000  -0.00860
-14.78697   0.00000  -0.10092   0.00000  -0.03328   0.00000  -0.03343   0.00000  -0.03338   0.00000  -0.03338   0.00000  -0.03343   0.00000  -0.03328   0.00000  -0.00243   0.00000  -0.46108   0.00000  -0.00231   0.00000  -0.46410   0.00000  -0.46120   0.00000  -0.00243   0.00000  -0.00232   0.00000  -0.46171   0.00000  -0.00246   0.00000  -0.45873   0.00000  -0.46159   0.00000  -0.00231   0.00000   0.00324   0.00000   0.00020   0.00000   0.00340   0.00000  -0.00034   0.00000   0.00249   0.00000  -0.00030   0.00000  -0.00921   0.00000  -0.00873   0.00000  -0.00919   0.00000  -0.00861   0.00000  -0.00896   0.00000  -0.00860
-14.73684   0.00000  -0.10092   0.00000  -0.03328   0.00000  -0.03343   0.00000  -0.03338   0.00000  -0.03338   0.00000  -0.03343   0.00000  -0.03328   0.00000  -0.00243   0.00000  -0.46108   0.00000  -0.00231   0.00000  -0.46410   0.00000  -0.46120   0.00000  -0.00243   0.00000  -0.00232   0.00000  -0.46171   0.00000  -0.00246   0.00000  -0.45873   0.00000  -0.46159   0.00000  -0.00231   0.00000   0.00324   0.00000   0.00020   0.00000   0.00340   0.00000  -0.00034   0.00000   0.00249   0.00000  -0.00030   0.00000  -0.00921   0.00000  -0.00873   0.00000  -0.00919   0.00000  -0.00861   0.00000  -0.00896   0.00000  -0.00860
-14.68672   0.00000  -0.10092   0.00000  -0.03328   0.00000  -0.03343   0.00000  -0.03338   0.00000  -0.03338   0.00000  -0.03343   0.00000  -0.03328   0.00000  -0.00243   0.00000  -0.46108   0.00000  -0.00231   0.00000  -0.46410   0.00000  -0.46120   0.00000  -0.00243   0.00000  -0.00232   0.00000  -0.46171   0.00000  -0.00246   0.00000  -0.45873   0.00000  -0.46159   0.00000  -0.00231   0.00000   0.00324   0.00000   0.00020   0.00000   0.00340   0.00000  -0.00034   0.00000   0.00249   0.00000  -0.00030   0.00000  -0.00921   0.00000  -0.00873   0.00000  -0.00919   0.00000  -0.00861   0.00000  -0.00896   0.00000  -0.00860
-14.63659   0.00000  -0.10092   0.00000  -0.03328   0.00000  -0.03343   0.00000  -0.03338   0.00000  -0.03338   0.00000  -0.03343   0.00000  -0.03328   0.00000  -0.00243   0.00000  -0.46108   0.00000  -0.00231   0.00000  -0.46410   0.00000  -0.46120   0.00000  -0.00243   0.00000  -0.00232   0.00000  -0.46171   0.00000  -0.00246   0.00000  -0.45873   0.00000  -0.46159   0.00000  -0.00231   0.00000   0.00324   0.00000   0.00020   0.00000   0.00340   0.00000  -0.00034   0.00000   0.00249   0.00000  -0.00030   0.00000  -0.00921   0.00000  -0.00873   0.00000  -0.00919   0.00000  -0.00861   0.00000  -0.00896   0.00000  -0.00860
-14.58647   0.00000  -0.10092   0.00000  -0.03328   0.00000  -0.03343   0.00000  -0.03338   0.00000  -0.03338   0.00000  -0.03343   0.00000  -0.03328   0.00000  -0.00243   0.00000  -0.46108   0.00000  -0.00231   0.00000  -0.46410   0.00000  -0.46120   0.00000  -0.00243   0.00000  -0.00232   0.00000  -0.46171   0.00000  -0.00246   0.00000  -0.45873   0.00000  -0.46159   0.00000  -0.00231   0.00000   0.00324   0.00000   0.00020   0.00000   0.00340   0.00000  -0.00034   0.00000   0.00249   0.00000  -0.00030   0.00000  -0.00921   0.00000  -0.00873   0.00000  -0.00919   0.00000  -0.00861   0.00000  -0.00896   0.00000  -0.00860
-14.53634   0.00000  -0.10092   0.00000  -0.03328   0.00000  -0.03343   0.00000  -0.03338   0.00000  -0.03338   0.00000  -0.03343   0.00000  -0.03328   0.00000  -0.00243   0.00000  -0.46108   0.00000  -0.00231   0.00000  -0.46410   0.00000  -0.46120   0.00000  -0.00243   0.00000  -0.00232   0.00000  -0.46171   0.00000  -0.00246   0.00000  -0.45873   0.00000  -0.46159   0.00000  -0.00231   0.00000   0.00324   0.00000   0.00020   0.00000   0.00340   0.00000  -0.00034   0.00000   0.00249   0.00000  -0.00030   0.00000  -0.00921   0.00000  -0.00873   0.00000  -0.00919   0.00000  -0.00861   0.00000  -0.00896   0.00000  -0.00860
-14.48622   0.00000  -0.10092   0.00000  -0.03328   0.00000  -0.03343   0.00000  -0.03338   0.00000  -0.03338   0.00000  -0.03343   0.00000  -0.03328   0.00000  -0.00243   0.00000  -0.46108   0.00000  -0.00231   0.00000  -0.46410   0.00000  -0.46120   0.00000  -0.00243   0.00000  -0.00232   0.00000  -0.46171   0.00000  -0.00246   0.00000  -0.45873   0.00000  -0.46159   0.00000  -0.00231   0.00000   0.00324   0.00000   0.00020   0.00000   0.00340   0.00000  -0.00034   0.00000   0.00249   0.00000  -0.00030   0.00000  -0.00921   0.00000  -0.00873   0.00000  -0.00919   0.00000  -0.00861   0.00000  -0.00896   0.00000  -0.00860
-14.43609   0.00000  -0.10092   0.00000  -0.03328   0.00000  -0.03343   0.00000  -0.03338   0.00000  -0.03338   0.00000  -0.03343   0.00000  -0.03328   0.00000  -0.00243   0.00000  -0.46108   0.00000  -0.00231   0.00000  -0.46410   0.00000  -0.46120   0.00000  -0.00243   0.00000  -0.00232   0.00000  -0.46171   0.00000  -0.00246   0.00000  -0.45873   0.00000  -0.46159   0.00000  -0.00231   0.00000   0.00324   0.00000   0.00020   0.00000   0.00340   0.00000  -0.00034   0.00000   0.00249   0.00000  -0.00030   0.00000  -0.00921   0.00000  -0.00873   0.00000  -0.00919   0.00000  -0.00861   0.00000  -0.00896   0.00000  -0.00860
-14.38596   0.00000  -0.10092   0.00000  -0.03328   0.00000  -0.03343   0.00000  -0.03338   0.00000  -0.03338   0.00000  -0.03343   0.00000  -0.03328   0.00000  -0.00243   0.00000  -0.46108   0.00000  -0.00231   0.00000  -0.46410   0.00000  -0.46120   0.00000  -0.00243   0.00000  -0.00232   0.00000  -0.46171   0.00000  -0.00246   0.00000  -0.45873   0.00000  -0.46159   0.00000  -0.00231   0.00000   0.00324   0.00000   0.00020   0.00000   0.00340   0.00000  -0.00034   0.00000   0.00249   0.00000  -0.00030   0.00000  -0.00921   0.00000  -0.00873   0.00000  -0.00919   0.00000  -0.00861   0.00000  -0.00896   0.00000  -0.00860
-14.33584   0.00000  -0.10092   0.00000  -0.03328   0.00000  -0.03343   0.00000  -0.03338   0.00000  -0.03338   0.00000  -0.03343   0.00000  -0.03328   0.00000  -0.00243   0.00000  -0.46108   0.00000  -0.00231   0.00000  -0.46410   0.00000  -0.46120   0.00000  -0.00243   0.00000  -0.00232   0.00000  -0.46171   0.00000  -0.00246   0.00000  -0.45873   0.00000  -0.46159   0.00000  -0.00231   0.00000   0.00324   0.00000   0.00020   0.00000   0.00340   0.00000  -0.00034   0.00000   0.00249   0.00000  -0.00030   0.00000  -0.00921   0.00000  -0.00873   0.00000  -0.00919   0.00000  -0.00861   0.00000  -0.00896   0.00000  -0.00860
-14.28571   0.00000  -0.10092   0.00000  -0.03328   0.00000  -0.03343   0.00000  -0.03338   0.00000  -0.03338   0.00000  -0.03343   0.00000  -0.03328   0.00000  -0.00243   0.00000  -0.46108   0.00000  -0.00231   0.00000  -0.46410   0.00000  -0.46120   0.00000  -0.00243   0.00000  -0.00232   0.00000  -0.46171   0.00000  -0.00246   0.00000  -0.45873   0.00000  -0.46159   0.00000  -0.00231   0.00000   0.00324   0.00000   0.00020   0.00000   0.00340   0.00000  -0.00034   0.00000   0.00249   0.00000  -0.00030   0.00000  -0.00921   0.00000  -0.00873   0.00000  -0.00919   0.00000  -0.00861   0.00000  -0.00896   0.00000  -0.00860
-14.23559   0.00000  -0.10092   0.00000  -0.03328   0.00000  -0.03343   0.00000  -0.03338   0.00000  -0.03338   0.00000  -0.03343   0.00000  -0.03328   0.00000  -0.00243   0.00000  -0.46108   0.00000  -0.00231   0.00000  -0.46410   0.00000  -0.46120   0.00000  -0.00243   0.00000  -0.00232   0.00000  -0.46171   0.00000  -0.00246   0.00000  -0.45873   0.00000  -0.46159   0.00000  -0.00231   0.00000   0.00324   0.00000   0.00020   0.00000   0.00340   0.00000  -0.00034   0.00000   0.00249   0.00000  -0.00030   0.00000  -0.00921   0.00000  -0.00873   0.00000  -0.00919   0.00000  -0.00861   0.00000  -0.00896   0.00000  -0.00860
-14.18546   0.00000  -0.10092   0.00000  -0.03328   0.00000  -0.03343   0.00000  -0.03338   0.00000  -0.03338   0.00000  -0.03343   0.00000  -0.03328   0.00000  -0.00243   0.00000  -0.46108   0.00000  -0.00231   0.00000  -0.46410   0.00000  -0.46120   0.00000  -0.00243   0.00000  -0.00232   0.00000  -0.46171   0.00000  -0.00246   0.00000  -0.45873   0.00000  -0.46159   0.00000  -0.00231   0.00000   0.00324   0.00000   0.00020   0.00000   0.00340   0.00000  -0.00034   0.00000   0.00249   0.00000  -0.00030   0.00000  -0.00921   0.00000  -0.00873   0.00000  -0.00919   0.00000  -0.00861   0.00000  -0.00896   0.00000  -0.00860
-14.13534   0.00000  -0.10092   0.00000  -0.03328   0.00000  -0.03343   0.00000  -0.03338   0.00000  -0.03338   0.00000  -0.03343   0.00000  -0.03328   0.00000  -0.00243   0.00000  -0.46108   0.00000  -0.00231   0.00000  -0.46410   0.00000  -0.46120   0.00000  -0.00243   0.00000  -0.00232   0.00000  -0.46171   0.00000  -0.00246   0.00000  -0.45873   0.00000  -0.46159   0.00000  -0.00231   0.00000   0.00324   0.00000   0.00020   0.00000   0.00340   0.00000  -0.00034   0.00000   0.00249   0.00000  -0.00030   0.00000  -0.00921   0.00000  -0.00873   0.00000  -0.00919   0.00000  -0.00861   0.00000  -0.00896   0.00000  -0.00860
-14.08521   0.00000  -0.10092   0.00000  -0.03328   0.00000  -0.03343   0.00000  -0.03338   0.00000  -0.03338   0.00000  -0.03343   0.00000  -0.03328   0.00000  -0.00243   0.00000  -0.46108   0.00000  -0.00231   0.00000  -0.46410   0.00000  -0.46120   0.00000  -0.00243   0.00000  -0.00232   0.00000  -0.46171   0.00000  -0.00246   0.00000  -0.45873   0.00000  -0.46159   0.00000  -0.00231   0.00000   0.00324   0.00000   0.00020   0.00000   0.00340   0.00000  -0.00034   0.00000   0.00249   0.00000  -0.00030   0.00000  -0.00921   0.00000  -0.00873   0.00000  -0.00919   0.00000  -0.00861   0.00000  -0.00896   0.00000  -0.00860
-14.03509   0.00000  -0.10092   0.00000  -0.03328   0.00000  -0.03343   0.00000  -0.03338   0.00000  -0.03338   0.00000  -0.03343   0.00000  -0.03328   0.00000  -0.00243   0.00000  -0.46108   0.00000  -0.00231   0.00000  -0.46410   0.00000  -0.46120   0.00000  -0.00243   0.00000  -0.00232   0.00000  -0.46171   0.00000  -0.00246   0.00000  -0.45873   0.00000  -0.46159   0.00000  -0.00231   0.00000   0.00324   0.00000   0.00020   0.00000   0.00340   0.00000  -0.00034   0.00000   0.00249   0.00000  -0.00030   0.00000  -0.00921   0.00000  -0.00873   0.00000  -0.00919   0.00000  -0.00861   0.00000  -0.00896   0.00000  -0.00860
-13.98496   0.00000  -0.10092   0.00000  -0.03328   0.00000  -0.03343   0.00000  -0.03338   0.00000  -0.03338   0.00000  -0.03343   0.00000  -0.03328   0.00000  -0.00243   0.00000  -0.46108   0.00000  -0.00231   0.00000  -0.46410   0.00000  -0.46120   0.00000  -0.00243   0.00000  -0.00232   0.00000  -0.46171   0.00000  -0.00246   0.00000  -0.45873   0.00000  -0.46159   0.00000  -0.00231   0.00000   0.00324   0.00000   0.00020   0.00000   0.00340   0.00000  -0.00034   0.00000   0.00249   0.00000  -0.00030   0.00000  -0.00921   0.00000  -0.00873   0.00000  -0.00919   0.00000  -0.00861   0.00000  -0.00896   0.00000  -0.00860
-13.93484   0.00000  -0.10092   0.00000  -0.03328   0.00000  -0.03343   0.00000  -0.03338   0.00000  -0.03338   0.00000  -0.03343   0.00000  -0.03328   0.00000  -0.00243   0.00000  -0.46108   0.00000  -0.00231   0.00000  -0.46410   0.00000  -0.46120   0.00000  -0.00243   0.00000  -0.00232   0.00000  -0.46171   0.00000  -0.00246   0.00000  -0.45873   0.00000  -0.46159   0.00000  -0.00231   0.00000   0.00324   0.00000   0.00020   0.00000   0.00340   0.00000  -0.00034   0.00000   0.00249   0.00000  -0.00030   0.00000  -0.00921   0.00000  -0.00873   0.00000  -0.00919   0.00000  -0.00861   0.00000  -0.00896   0.00000  -0.00860
-13.88471   0.00000  -0.10092   0.00000  -0.03328   0.00000  -0.03343   0.00000  -0.03338   0.00000  -0.03338   0.00000  -0.03343   0.00000  -0.03328   0.00000  -0.00243   0.00000  -0.46108   0.00000  -0.00231   0.00000  -0.46410   0.00000  -0.46120   0.00000  -0.00243   0.00000  -0.00232   0.00000  -0.46171   0.00000  -0.00246   0.00000  -0.45873   0.00000  -0.46159   0.00000  -0.00231   0.00000   0.00324   0.00000   0.00020   0.00000   0.00340   0.00000  -0.00034   0.00000   0.00249   0.00000  -0.00030   0.00000  -0.00921   0.00000  -0.00873   0.00000  -0.00919   0.00000  -0.00861   0.00000  -0.00896   0.00000  -0.00860
-13.83459   0.00000  -0.10092   0.00000  -0.03328   0.00000  -0.03343   0.00000  -0.03338   0.00000  -0.03338   0.00000  -0.03343   0.00000  -0.03328   0.00000  -0.00243   0.00000  -0.46108   0.00000  -0.00231   0.00000  -0.46410   0.00000  -0.46120   0.00000  -0.00243   0.00000  -0.00232   0.00000  -0.46171   0.00000  -0.00246   0.00000  -0.45873   0.00000  -0.46159   0.00000  -0.00231   0.00000   0.00324   0.00000   0.00020   0.00000   0.00340   0.00000  -0.00034   0.00000   0.00249   0.00000  -0.00030   0.00000  -0.00921   0.00000  -0.00873   0.00000  -0.00919   0.00000  -0.00861   0.00000  -0.00896   0.00000  -0.00860
-13.78446   0.00000  -0.10092   0.00000  -0.03328   0.00000  -0.03343   0.00000  -0.03338   0.00000  -0.03338   0.00000  -0.03343   0.00000  -0.03328   0.00000  -0.00243   0.00000  -0.46108   0.00000  -0.00231   0.00000  -0.46410   0.00000  -0.46120   0.00000  -0.00243   0.00000  -0.00232   0.00000  -0.46171   0.00000  -0.00246   0.00000  -0.45873   0.00000  -0.46159   0.00000  -0.00231   0.00000   0.00324   0.00000   0.00020   0.00000   0.00340   0.00000  -0.00034   0.00000   0.00249   0.00000  -0.00030   0.00000  -0.00921   0.00000  -0.00873   0.00000  -0.00919   0.00000  -0.00861   0.00000  -0.00896   0.00000  -0.00860
-13.73434   0.00000  -0.10092   0.00000  -0.03328   0.00000  -0.03343   0.00000  -0.03338   0.00000  -0.03338   0.00000  -0.03343   0.00000  -0.03328   0.00000  -0.00243   0.00000  -0.46108   0.00000  -0.00231   0.00000  -0.46410   0.00000  -0.46120   0.00000  -0.00243   0.00000  -0.00232   0.00000  -0.46171   0.00000  -0.00246   0.00000  -0.45873   0.00000  -0.46159   0.00000  -0.00231   0.00000   0.00324   0.00000   0.00020   0.00000   0.00340   0.00000  -0.00034   0.00000   0.00249   0.00000  -0.00030   0.00000  -0.00921   0.00000  -0.00873   0.00000  -0.00919   0.00000  -0.00861   0.00000  -0.00896   0.00000  -0.00860
-13.68421   0.00000  -0.10092   0.00000  -0.03328   0.00000  -0.03343   0.00000  -0.03338   0.00000  -0.03338   0.00000  -0.03343   0.00000  -0.03328   0.00000  -0.00243   0.00000  -0.46108   0.00000  -0.00231   0.00000  -0.46410   0.00000  -0.46120   0.00000  -0.00243   0.00000  -0.00232   0.00000  -0.46171   0.00000  -0.00246   0.00000  -0.45873   0.00000  -0.46159   0.00000  -0.00231   0.00000   0.00324   0.00000   0.00020   0.00000   0.00340   0.00000  -0.00034   0.00000   0.00249   0.00000  -0.00030   0.00000  -0.00921   0.00000  -0.00873   0.00000  -0.00919   0.00000  -0.00861   0.00000  -0.00896   0.00000  -0.00860
-13.63409   0.00000  -0.10092   0.00000  -0.03328   0.00000  -0.03343   0.00000  -0.03338   0.00000  -0.03338   0.00000  -0.03343   0.00000  -0.03328   0.00000  -0.00243   0.00000  -0.46108   0.00000  -0.00231   0.00000  -0.46410   0.00000  -0.46120   0.00000  -0.00243   0.00000  -0.00232   0.00000  -0.46171   0.00000  -0.00246   0.00000  -0.45873   0.00000  -0.46159   0.00000  -0.00231   0.00000   0.00324   0.00000   0.00020   0.00000   0.00340   0.00000  -0.00034   0.00000   0.00249   0.00000  -0.00030   0.00000  -0.00921   0.00000  -0.00873   0.00000  -0.00919   0.00000  -0.00861   0.00000  -0.00896   0.00000  -0.00860
-13.58396   0.00000  -0.10092   0.00000  -0.03328   0.00000  -0.03343   0.00000  -0.03338   0.00000  -0.03338   0.00000  -0.03343   0.00000  -0.03328   0.00000  -0.00243   0.00000  -0.46108   0.00000  -0.00231   0.00000  -0.46410   0.00000  -0.46120   0.00000  -0.00243   0.00000  -0.00232   0.00000  -0.46171   0.00000  -0.00246   0.00000  -0.45873   0.00000  -0.46159   0.00000  -0.00231   0.00000   0.00324   0.00000   0.00020   0.00000   0.00340   0.00000  -0.00034   0.00000   0.00249   0.00000  -0.00030   0.00000  -0.00921   0.00000  -0.00873   0.00000  -0.00919   0.00000  -0.00861   0.00000  -0.00896   0.00000  -0.00860
-13.53383   0.00000  -0.10092   0.00000  -0.03328   0.00000  -0.03343   0.00000  -0.03338   0.00000  -0.03338   0.00000  -0.03343   0.00000  -0.03328   0.00000  -0.00243   0.00000  -0.46108   0.00000  -0.00231   0.00000  -0.46410   0.00000  -0.46120   0.00000  -0.00243   0.00000  -0.00232   0.00000  -0.46171   0.00000  -0.00246   0.00000  -0.45873   0.00000  -0.46159   0.00000  -0.00231   0.00000   0.00324   0.00000   0.00020   0.00000   0.00340   0.00000  -0.00034   0.00000   0.00249   0.00000  -0.00030   0.00000  -0.00921   0.00000  -0.00873   0.00000  -0.00919   0.00000  -0.00861   0.00000  -0.00896   0.00000  -0.00860
-13.48371   0.00000  -0.10092   0.00000  -0.03328   0.00000  -0.03343   0.00000  -0.03338   0.00000  -0.03338   0.00000  -0.03343   0.00000  -0.03328   0.00000  -0.00243   0.00000  -0.46108   0.00000  -0.00231   0.00000  -0.46410   0.00000  -0.46120   0.00000  -0.00243   0.00000  -0.00232   0.00000  -0.46171   0.00000  -0.00246   0.00000  -0.45873   0.00000  -0.46159   0.00000  -0.00231   0.00000   0.00324   0.00000   0.00020   0.00000   0.00340   0.00000  -0.00034   0.00000   0.00249   0.00000  -0.00030   0.00000  -0.00921   0.00000  -0.00873   0.00000  -0.00919   0.00000  -0.00861   0.00000  -0.00896   0.00000  -0.00860
-13.43358   0.00000  -0.10092   0.00000  -0.03328   0.00000  -0.03343   0.00000  -0.03338   0.00000  -0.03338   0.00000  -0.03343   0.00000  -0.03328   0.00000  -0.00243   0.00000  -0.46108   0.00000  -0.00231   0.00000  -0.46410   0.00000  -0.46120   0.00000  -0.00243   0.00000  -0.00232   0.00000  -0.46171   0.00000  -0.00246   0.00000  -0.45873   0.00000  -0.46159   0.00000  -0.00231   0.00000   0.00324   0.00000   0.00020   0.00000   0.00340   0.00000  -0.00034   0.00000   0.00249   0.00000  -0.00030   0.00000  -0.00921   0.00000  -0.00873   0.00000  -0.00919   0.00000  -0.00861   0.00000  -0.00896   0.00000  -0.00860
-13.38346   0.00000  -0.10092   0.00000  -0.03328   0.00000  -0.03343   0.00000  -0.03338   0.00000  -0.03338   0.00000  -0.03343   0.00000  -0.03328   0.00000  -0.00243   0.00000  -0.46108   0.00000  -0.00231   0.00000  -0.46410   0.00000  -0.46120   0.00000  -0.00243   0.00000  -0.00232   0.00000  -0.46171   0.00000  -0.00246   0.00000  -0.45873   0.00000  -0.46159   0.00000  -0.00231   0.00000   0.00324   0.00000   0.00020   0.00000   0.00340   0.00000  -0.00034   0.00000   0.00249   0.00000  -0.00030   0.00000  -0.00921   0.00000  -0.00873   0.00000  -0.00919   0.00000  -0.00861   0.00000  -0.00896   0.00000  -0.00860
-13.33333   0.00000  -0.10092   0.00000  -0.03328   0.00000  -0.03343   0.00000  -0.03338   0.00000  -0.03338   0.00000  -0.03343   0.00000  -0.03328   0.00000  -0.00243   0.00000  -0.46108   0.00000  -0.00231   0.00000  -0.46410   0.00000  -0.46120   0.00000  -0.00243   0.00000  -0.00232   0.00000  -0.46171   0.00000  -0.00246   0.00000  -0.45873   0.00000  -0.46159   0.00000  -0.00231   0.00000   0.00324   0.00000   0.00020   0.00000   0.00340   0.00000  -0.00034   0.00000   0.00249   0.00000  -0.00030   0.00000  -0.00921   0.00000  -0.00873   0.00000  -0.00919   0.00000  -0.00861   0.00000  -0.00896   0.00000  -0.00860
-13.28321   0.00000  -0.10092   0.00000  -0.03328   0.00000  -0.03343   0.00000  -0.03338   0.00000  -0.03338   0.00000  -0.03343   0.00000  -0.03328   0.00000  -0.00243   0.00000  -0.46108   0.00000  -0.00231   0.00000  -0.46410   0.00000  -0.46120   0.00000  -0.00243   0.00000  -0.00232   0.00000  -0.46171   0.00000  -0.00246   0.00000  -0.45873   0.00000  -0.46159   0.00000  -0.00231   0.00000   0.00324   0.00000   0.00020   0.00000   0.00340   0.00000  -0.00034   0.00000   0.00249   0.00000  -0.00030   0.00000  -0.00921   0.00000  -0.00873   0.00000  -0.00919   0.00000  -0.00861   0.00000  -0.00896   0.00000  -0.00860
-13.23308   0.00000  -0.10092   0.00000  -0.03328   0.00000  -0.03343   0.00000  -0.03338   0.00000  -0.03338   0.00000  -0.03343   0.00000  -0.03328   0.00000  -0.00243   0.00000  -0.46108   0.00000  -0.00231   0.00000  -0.46410   0.00000  -0.46120   0.00000  -0.00243   0.00000  -0.00232   0.00000  -0.46171   0.00000  -0.00246   0.00000  -0.45873   0.00000  -0.46159   0.00000  -0.00231   0.00000   0.00324   0.00000   0.00020   0.00000   0.00340   0.00000  -0.00034   0.00000   0.00249   0.00000  -0.00030   0.00000  -0.00921   0.00000  -0.00873   0.00000  -0.00919   0.00000  -0.00861   0.00000  -0.00896   0.00000  -0.00860
-13.18296   0.00000  -0.10092   0.00000  -0.03328   0.00000  -0.03343   0.00000  -0.03338   0.00000  -0.03338   0.00000  -0.03343   0.00000  -0.03328   0.00000  -0.00243   0.00000  -0.46108   0.00000  -0.00231   0.00000  -0.46410   0.00000  -0.46120   0.00000  -0.00243   0.00000  -0.00232   0.00000  -0.46171   0.00000  -0.00246   0.00000  -0.45873   0.00000  -0.46159   0.00000  -0.00231   0.00000   0.00324   0.00000   0.00020   0.00000   0.00340   0.00000  -0.00034   0.00000   0.00249   0.00000  -0.00030   0.00000  -0.00921   0.00000  -0.00873   0.00000  -0.00919   0.00000  -0.00861   0.00000  -0.00896   0.00000  -0.00860
-13.13283   0.00000  -0.10092   0.00000  -0.03328   0.00000  -0.03343   0.00000  -0.03338   0.00000  -0.03338   0.00000  -0.03343   0.00000  -0.03328   0.00000  -0.00243   0.00000  -0.46108   0.00000  -0.00231   0.00000  -0.46410   0.00000  -0.46120   0.00000  -0.00243   0.00000  -0.00232   0.00000  -0.46171   0.00000  -0.00246   0.00000  -0.45873   0.00000  -0.46159   0.00000  -0.00231   0.00000   0.00324   0.00000   0.00020   0.00000   0.00340   0.00000  -0.00034   0.00000   0.00249   0.00000  -0.00030   0.00000  -0.00921   0.00000  -0.00873   0.00000  -0.00919   0.00000  -0.00861   0.00000  -0.00896   0.00000  -0.00860
-13.08271   0.00000  -0.10092   0.00000  -0.03328   0.00000  -0.03343   0.00000  -0.03338   0.00000  -0.03338   0.00000  -0.03343   0.00000  -0.03328   0.00000  -0.00243   0.00000  -0.46108   0.00000  -0.00231   0.00000  -0.46410   0.00000  -0.46120   0.00000  -0.00243   0.00000  -0.00232   0.00000  -0.46171   0.00000  -0.00246   0.00000  -0.45873   0.00000  -0.46159   0.00000  -0.00231   0.00000   0.00324   0.00000   0.00020   0.00000   0.00340   0.00000  -0.00034   0.00000   0.00249   0.00000  -0.00030   0.00000  -0.00921   0.00000  -0.00873   0.00000  -0.00919   0.00000  -0.00861   0.00000  -0.00896   0.00000  -0.00860
-13.03258   0.00000  -0.10092   0.00000  -0.03328   0.00000  -0.03343   0.00000  -0.03338   0.00000  -0.03338   0.00000  -0.03343   0.00000  -0.03328   0.00000  -0.00243   0.00000  -0.46108   0.00000  -0.00231   0.00000  -0.46410   0.00000  -0.46120   0.00000  -0.00243   0.00000  -0.00232   0.00000  -0.46171   0.00000  -0.00246   0.00000  -0.45873   0.00000  -0.46159   0.00000  -0.00231   0.00000   0.00324   0.00000   0.00020   0.00000   0.00340   0.00000  -0.00034   0.00000   0.00249   0.00000  -0.00030   0.00000  -0.00921   0.00000  -0.00873   0.00000  -0.00919   0.00000  -0.00861   0.00000  -0.00896   0.00000  -0.00860
-12.98246   0.00000  -0.10092   0.00000  -0.03328   0.00000  -0.03343   0.00000  -0.03338   0.00000  -0.03338   0.00000  -0.03343   0.00000  -0.03328   0.00000  -0.00243   0.00000  -0.46108   0.00000  -0.00231   0.00000  -0.46410   0.00000  -0.46120   0.00000  -0.00243   0.00000  -0.00232   0.00000  -0.46171   0.00000  -0.00246   0.00000  -0.45873   0.00000  -0.46159   0.00000  -0.00231   0.00000   0.00324   0.00000   0.00020   0.00000   0.00340   0.00000  -0.00034   0.00000   0.00249   0.00000  -0.00030   0.00000  -0.00921   0.00000  -0.00873   0.00000  -0.00919   0.00000  -0.00861   0.00000  -0.00896   0.00000  -0.00860
-12.93233   0.00000  -0.10092   0.00000  -0.03328   0.00000  -0.03343   0.00000  -0.03338   0.00000  -0.03338   0.00000  -0.03343   0.00000  -0.03328   0.00000  -0.00243   0.00000  -0.46108   0.00000  -0.00231   0.00000  -0.46410   0.00000  -0.46120   0.00000  -0.00243   0.00000  -0.00232   0.00000  -0.46171   0.00000  -0.00246   0.00000  -0.45873   0.00000  -0.46159   0.00000  -0.00231   0.00000   0.00324   0.00000   0.00020   0.00000   0.00340   0.00000  -0.00034   0.00000   0.00249   0.00000  -0.00030   0.00000  -0.00921   0.00000  -0.00873   0.00000  -0.00919   0.00000  -0.00861   0.00000  -0.00896   0.00000  -0.00860
-12.88221   0.00000  -0.10092   0.00000  -0.03328   0.00000  -0.03343   0.00000  -0.03338   0.00000  -0.03338   0.00000  -0.03343   0.00000  -0.03328   0.00000  -0.00243   0.00000  -0.46108   0.00000  -0.00231   0.00000  -0.46410   0.00000  -0.46120   0.00000  -0.00243   0.00000  -0.00232   0.00000  -0.46171   0.00000  -0.00246   0.00000  -0.45873   0.00000  -0.46159   0.00000  -0.00231   0.00000   0.00324   0.00000   0.00020   0.00000   0.00340   0.00000  -0.00034   0.00000   0.00249   0.00000  -0.00030   0.00000  -0.00921   0.00000  -0.00873   0.00000  -0.00919   0.00000  -0.00861   0.00000  -0.00896   0.00000  -0.00860
-12.83208   0.00000  -0.10092   0.00000  -0.03328   0.00000  -0.03343   0.00000  -0.03338   0.00000  -0.03338   0.00000  -0.03343   0.00000  -0.03328   0.00000  -0.00243   0.00000  -0.46108   0.00000  -0.00231   0.00000  -0.46410   0.00000  -0.46120   0.00000  -0.00243   0.00000  -0.00232   0.00000  -0.46171   0.00000  -0.00246   0.00000  -0.45873   0.00000  -0.46159   0.00000  -0.00231   0.00000   0.00324   0.00000   0.00020   0.00000   0.00340   0.00000  -0.00034   0.00000   0.00249   0.00000  -0.00030   0.00000  -0.00921   0.00000  -0.00873   0.00000  -0.00919   0.00000  -0.00861   0.00000  -0.00896   0.00000  -0.00860