   8    8    1    1
  7.4166711e+01   3.0535940e-10   3.0535940e-10   9.1845062e-10   5.0000000e-16
            1.000000e-04
  CAR
 DOS and projected DOS file by LOBSTER. Energy is shifted such that the Fermi level lies at 0 eV. 
     11.29753311      -8.75259220   401       6.28500178       1.00000000
-15.03759   0.00000   8.00043
-14.98747   0.00000   8.00043
-14.93734   0.00000   8.00043
-14.88722   0.00000   8.00043
-14.83709   0.00000   8.00043
-14.78697   0.00000   8.00043
-14.73684   0.00000   8.00043
-14.68672   0.00000   8.00043
-14.63659   0.00000   8.00043
-14.58647   0.00000   8.00043
-14.53634   0.00000   8.00043
-14.48622   0.00000   8.00043
-14.43609   0.00000   8.00043
-14.38596   0.00000   8.00043
-14.33584   0.00000   8.00043
-14.28571   0.00000   8.00043
-14.23559   0.00000   8.00043
-14.18546   0.00000   8.00043
-14.13534   0.00000   8.00043
-14.08521   0.00000   8.00043
-14.03509   0.00000   8.00043
-13.98496   0.00000   8.00043
-13.93484   0.00000   8.00043
-13.88471   0.00000   8.00043
-13.83459   0.00000   8.00043
-13.78446   0.00000   8.00043
-13.73434   0.00000   8.00043
-13.68421   0.00000   8.00043
-13.63409   0.00000   8.00043
-13.58396   0.00000   8.00043
-13.53383   0.00000   8.00043
-13.48371   0.00000   8.00043
-13.43358   0.00000   8.00043
-13.38346   0.00000   8.00043
-13.33333   0.00000   8.00043
-13.28321   0.00000   8.00043
-13.23308   0.00000   8.00043
-13.18296   0.00000   8.00043
-13.13283   0.00000   8.00043
-13.08271   0.00000   8.00043
-13.03258   0.00000   8.00043
-12.98246   0.00000   8.00043
-12.93233   0.00000   8.00043
-12.88221   0.00000   8.00043
-12.83208   0.00000   8.00043
-12.78195   0.00000   8.00043
-12.73183   0.00000   8.00043
-12.68170   0.00000   8.00043
-12.63158   0.00000   8.00043
-12.58145   0.00000   8.00043
-12.53133   0.00000   8.00043
-12.48120   0.00000   8.00043
-12.43108   0.00000   8.00043
-12.38095   0.00000   8.00043
-12.33083   0.00000   8.00043
-12.28070   0.00000   8.00043
-12.23058   0.00000   8.00043
-12.18045   0.00000   8.00043
-12.13033   0.00000   8.00043
-12.08020   0.00000   8.00043
-12.03008   0.00000   8.00043
-11.97995   0.00000   8.00043
-11.92982   0.00000   8.00043
-11.87970   0.00000   8.00043
-11.82957   0.00000   8.00043
-11.77945   0.00000   8.00043
-11.72932   0.00000   8.00043
-11.67920   0.00000   8.00043
-11.62907   0.00000   8.00043
-11.57895   0.00000   8.00043
-11.52882   0.00000   8.00043
-11.47870   0.00000   8.00043
-11.42857   0.00000   8.00043
-11.37845   0.00000   8.00043
-11.32832   0.00000   8.00043
-11.27820   0.00000   8.00043
-11.22807   0.00000   8.00043
-11.17794   0.00000   8.00043
-11.12782   0.00000   8.00043
-11.07769   0.00000   8.00043
-11.02757   0.00000   8.00043
-10.97744   0.00001   8.00043
-10.92732   0.05372   8.00313
-10.87719   0.18143   8.01222
-10.82707   0.25097   8.02480
-10.77694   0.30033   8.03986
-10.72682   0.36045   8.05792
-10.67669   0.41624   8.07879
-10.62657   0.45729   8.10171
-10.57644   0.50429   8.12699
-10.52632   0.55060   8.15459
-10.47619   0.59334   8.18433
-10.42607   0.64204   8.21651
-10.37594   0.69320   8.25126
-10.32581   0.74049   8.28837
-10.27569   0.78822   8.32788
-10.22556   0.83926   8.36995
-10.17544   0.89166   8.41465
-10.12531   0.94564   8.46205
-10.07519   1.00355   8.51235
-10.02506   1.06514   8.56574
 -9.97494   1.13234   8.62250
 -9.92481   1.20162   8.68273
 -9.87469   1.27583   8.74668
 -9.82456   1.35660   8.81468
 -9.77444   1.43873   8.88680
 -9.72431   1.54283   8.96414
 -9.67419   1.69184   9.04894
 -9.62406   1.84604   9.14147
 -9.57393   1.93143   9.23829
 -9.52381   1.99491   9.33828
 -9.47368   2.06510   9.44180
 -9.42356   2.14153   9.54914
 -9.37343   2.23317   9.66108
 -9.32331   2.33597   9.77817
 -9.27318   2.50209   9.90359
 -9.22306   2.61548  10.03469
 -9.17293   2.61216  10.16563
 -9.12281   2.51185  10.29153
 -9.07268   2.49768  10.41673
 -9.02256   2.75444  10.55480
 -8.97243   3.08208  10.70929
 -8.92231   3.32542  10.87597
 -8.87218   3.67477  11.06017
 -8.82206   3.85065  11.25319
 -8.77193   3.61634  11.43446
 -8.72180   3.44067  11.60692
 -8.67168   3.63222  11.78899
 -8.62155   3.85780  11.98236
 -8.57143   2.24398  12.09484
 -8.52130   1.84987  12.18757
 -8.47118   2.08197  12.29193
 -8.42105   2.73421  12.42898
 -8.37093   3.20400  12.58958
 -8.32080   3.71059  12.77558
 -8.27068   4.16618  12.98441
 -8.22055   4.10829  13.19034
 -8.17043   3.94276  13.38797
 -8.12030   4.00776  13.58886
 -8.07018   4.17237  13.79800
 -8.02005   4.43308  14.02021
 -7.96992   3.69237  14.20529
 -7.91980   3.12613  14.36199
 -7.86967   2.57828  14.49123
 -7.81955   2.17999  14.60050
 -7.76942   1.91601  14.69654
 -7.71930   1.91568  14.79256
 -7.66917   2.17189  14.90143
 -7.61905   2.68253  15.03589
 -7.56892   3.27505  15.20006
 -7.51880   3.44008  15.37249
 -7.46867   3.58246  15.55206
 -7.41855   3.94785  15.74995
 -7.36842   4.48541  15.97478
 -7.31830   5.16072  16.23347
 -7.26817   5.31153  16.49971
 -7.21805   6.06356  16.80365
 -7.16792   6.38198  17.12355
 -7.11779   5.33448  17.39094
 -7.06767   5.44207  17.66372
 -7.01754   5.17752  17.92325
 -6.96742   4.76156  18.16192
 -6.91729   4.53257  18.38912
 -6.86717   4.23318  18.60131
 -6.81704   4.05960  18.80480
 -6.76692   3.95442  19.00301
 -6.71679   3.86510  19.19675
 -6.66667   3.81854  19.38816
 -6.61654   3.86902  19.58209
 -6.56642   3.88234  19.77670
 -6.51629   3.90905  19.97264
 -6.46617   3.94507  20.17039
 -6.41604   4.07261  20.37453
 -6.36591   4.45895  20.59804
 -6.31579   4.81234  20.83926
 -6.26566   5.71241  21.12559
 -6.21554   6.56048  21.45444
 -6.16541   6.47555  21.77903
 -6.11529   6.37233  22.09844
 -6.06516   6.29029  22.41374
 -6.01504   5.32440  22.68063
 -5.96491   4.23130  22.89273
 -5.91479   3.51013  23.06867
 -5.86466   2.90991  23.21453
 -5.81454   2.57599  23.34366
 -5.76441   2.19390  23.45363
 -5.71429   2.14690  23.56124
 -5.66416   2.27907  23.67548
 -5.61404   2.18284  23.78489
 -5.56391   2.14183  23.89225
 -5.51378   2.10123  23.99758
 -5.46366   2.05706  24.10069
 -5.41353   2.12626  24.20727
 -5.36341   2.28102  24.32161
 -5.31328   2.26453  24.43512
 -5.26316   2.21364  24.54608
 -5.21303   2.19987  24.65635
 -5.16291   2.29457  24.77136
 -5.11278   2.52137  24.89775
 -5.06266   2.89326  25.04277
 -5.01253   3.20692  25.20352
 -4.96241   3.19103  25.36347
 -4.91228   3.06874  25.51729
 -4.86216   3.00946  25.66814
 -4.81203   2.99872  25.81846
 -4.76190   2.98762  25.96821
 -4.71178   2.98663  26.11792
 -4.66165   2.98032  26.26731
 -4.61153   2.99540  26.41745
 -4.56140   3.20600  26.57815
 -4.51128   3.60737  26.75897
 -4.46115   4.42154  26.98060
 -4.41103   4.58703  27.21053
 -4.36090   4.87570  27.45493
 -4.31078   4.59914  27.68546
 -4.26065   4.54341  27.91320
 -4.21053   3.50521  28.08890
 -4.16040   3.86229  28.28250
 -4.11028   5.05542  28.53590
 -4.06015   7.48792  28.91124
 -4.01003   6.30964  29.22751
 -3.95990   4.26557  29.44132
 -3.90977   3.65889  29.62473
 -3.85965   3.46294  29.79831
 -3.80952   3.36646  29.96705
 -3.75940   3.43467  30.13922
 -3.70927   3.60591  30.31996
 -3.65915   3.89226  30.51506
 -3.60902   3.61253  30.69614
 -3.55890   2.83321  30.83816
 -3.50877   2.47910  30.96242
 -3.45865   2.29658  31.07754
 -3.40852   2.11504  31.18356
 -3.35840   1.97115  31.28236
 -3.30827   1.89484  31.37734
 -3.25815   1.82255  31.46870
 -3.20802   1.58404  31.54810
 -3.15789   1.25527  31.61102
 -3.10777   1.00215  31.66125
 -3.05764   0.86378  31.70455
 -3.00752   0.75868  31.74258
 -2.95739   0.66787  31.77606
 -2.90727   0.59423  31.80584
 -2.85714   0.53322  31.83257
 -2.80702   0.47556  31.85641
 -2.75689   0.42071  31.87749
 -2.70677   0.37337  31.89621
 -2.65664   0.33513  31.91301
 -2.60652   0.29927  31.92801
 -2.55639   0.26413  31.94125
 -2.50627   0.22823  31.95269
 -2.45614   0.20080  31.96276
 -2.40602   0.39422  31.98252
 -2.35589   0.92810  32.02904
 -2.30576   1.33553  32.09598
 -2.25564   1.80250  32.18633
 -2.20551   2.39454  32.30636
 -2.15539   3.10370  32.46193
 -2.10526   4.07887  32.66639
 -2.05514   5.35867  32.93499
 -2.00501   7.32264  33.30204
 -1.95489   9.24344  33.76537
 -1.90476  10.89111  34.31129
 -1.85464  13.64347  34.99518
 -1.80451  15.40998  35.76761
 -1.75439  11.49581  36.34384
 -1.70426  10.24356  36.85730
 -1.65414   8.86481  37.30165
 -1.60401  10.79520  37.84276
 -1.55388  11.70609  38.42953
 -1.50376  12.91605  39.07695
 -1.45363  14.51966  39.80476
 -1.40351  19.58176  40.78630
 -1.35338  21.54314  41.86616
 -1.30326  22.41136  42.98953
 -1.25313  11.22287  43.55208
 -1.20301   6.61254  43.88354
 -1.15288   3.69928  44.06897
 -1.10276   2.94187  44.21643
 -1.05263   3.39203  44.38645
 -1.00251   3.74779  44.57431
 -0.95238   3.50860  44.75018
 -0.90226   3.27423  44.91431
 -0.85213   3.02277  45.06582
 -0.80201   2.84900  45.20863
 -0.75188   2.89419  45.35370
 -0.70175   3.10568  45.50937
 -0.65163   3.27599  45.67358
 -0.60150   3.36480  45.84225
 -0.55138   3.49679  46.01752
 -0.50125   3.73810  46.20490
 -0.45113   4.03242  46.40702
 -0.40100   4.71855  46.64354
 -0.35088   5.71340  46.92993
 -0.30075   5.62882  47.21207
 -0.25063   4.89823  47.45760
 -0.20050   4.24280  47.67027
 -0.15038   3.61794  47.85162
 -0.10025   1.69330  47.93650
 -0.05013   0.74525  47.97386
  0.00000   0.56955  48.00240
  0.05013   1.51197  48.07819
  0.10025   2.29001  48.19298
  0.15038   3.15527  48.35114
  0.20050   4.14947  48.55913
  0.25063   4.98114  48.80881
  0.30075   5.81467  49.10027
  0.35088   6.79513  49.44088
  0.40100   7.32281  49.80794
  0.45113   7.65947  50.19187
  0.50125  10.04735  50.69550
  0.55138   5.57665  50.97503
  0.60150   3.74623  51.16281
  0.65163   3.08968  51.31768
  0.70175   2.77923  51.45699
  0.75188   2.59743  51.58719
  0.80201   2.64904  51.71997
  0.85213   2.29181  51.83485
  0.90226   1.66825  51.91847
  0.95238   0.89962  51.96357
  1.00251   0.50193  51.98873
  1.05263   0.24286  52.00090
  1.10276   0.03336  52.00257
  1.15288   0.00000  52.00257
  1.20301   0.00000  52.00257
  1.25313   0.00000  52.00257
  1.30326   0.00000  52.00257
  1.35338   0.00000  52.00257
  1.40351   0.00000  52.00257
  1.45363   0.00000  52.00257
  1.50376   0.00000  52.00257
  1.55388   0.00000  52.00257
  1.60401   0.00000  52.00257
  1.65414   0.00000  52.00257
  1.70426   0.00000  52.00257
  1.75439   0.00000  52.00257
  1.80451   0.00000  52.00257
  1.85464   0.00000  52.00257
  1.90476   0.02539  52.00384
  1.95489   0.12293  52.01001
  2.00501   0.24380  52.02223
  2.05514   0.38039  52.04129
  2.10526   0.62875  52.07281
  2.15539   1.43486  52.14473
  2.20551   1.52743  52.22130
  2.25564   1.28266  52.28559
  2.30576   1.24765  52.34813
  2.35589   1.25512  52.41104
  2.40602   1.26168  52.47428
  2.45614   1.25723  52.53730
  2.50627   1.25397  52.60016
  2.55639   1.24526  52.66258
  2.60652   1.25159  52.72531
  2.65664   1.26172  52.78856
  2.70677   1.28482  52.85296
  2.75689   1.31556  52.91890
  2.80702   1.34895  52.98652
  2.85714   1.38522  53.05595
  2.90727   1.47114  53.12970
  2.95739   1.57038  53.20841
  3.00752   1.81521  53.29940
  3.05764   1.86581  53.39292
  3.10777   1.94628  53.49048
  3.15789   2.00638  53.59105
  3.20802   2.24738  53.70370
  3.25815   3.11514  53.85985
  3.30827   3.37027  54.02879
  3.35840   2.60562  54.15939
  3.40852   2.26653  54.27300
  3.45865   2.01372  54.37394
  3.50877   1.70886  54.45960
  3.55890   1.60397  54.54000
  3.60902   1.55311  54.61785
  3.65915   1.49932  54.69300
  3.70927   1.44229  54.76530
  3.75940   1.37758  54.83435
  3.80952   1.35399  54.90222
  3.85965   1.31496  54.96813
  3.90977   1.38949  55.03778
  3.95990   1.65091  55.12053
  4.01003   1.80796  55.21116
  4.06015   1.99109  55.31096
  4.11028   2.15861  55.41916
  4.16040   2.44039  55.54149
  4.21053   2.77660  55.68067
  4.26065   2.79679  55.82085
  4.31078   2.62134  55.95225
  4.36090   2.58610  56.08188
  4.41103   2.59264  56.21184
  4.46115   2.61859  56.34309
  4.51128   2.61971  56.47441
  4.56140   2.74539  56.61202
  4.61153   2.76421  56.75058
  4.66165   2.62888  56.88235
  4.71178   2.34170  56.99973
  4.76190   2.20205  57.11011
  4.81203   2.12381  57.21657
  4.86216   2.09771  57.32171
  4.91228   2.14389  57.42918
  4.96241   2.27105  57.54301
  5.01253   2.46773  57.66671
      5.01253133     -15.03759398   401       6.28500178       1.00000000; Z= 28; 4s 3d_xy 3d_yz 3d_z^2 3d_xz 3d_x^2-y^2 
-15.03759   0.00000   0.00000   0.00000   0.00000   0.00000   0.00000
-14.98747   0.00000   0.00000   0.00000   0.00000   0.00000   0.00000
-14.93734   0.00000   0.00000   0.00000   0.00000   0.00000   0.00000
-14.88722   0.00000   0.00000   0.00000   0.00000   0.00000   0.00000
-14.83709   0.00000   0.00000   0.00000   0.00000   0.00000   0.00000
-14.78697   0.00000   0.00000   0.00000   0.00000   0.00000   0.00000
-14.73684   0.00000   0.00000   0.00000   0.00000   0.00000   0.00000
-14.68672   0.00000   0.00000   0.00000   0.00000   0.00000   0.00000
-14.63659   0.00000   0.00000   0.00000   0.00000   0.00000   0.00000
-14.58647   0.00000   0.00000   0.00000   0.00000   0.00000   0.00000
-14.53634   0.00000   0.00000   0.00000   0.00000   0.00000   0.00000
-14.48622   0.00000   0.00000   0.00000   0.00000   0.00000   0.00000
-14.43609   0.00000   0.00000   0.00000   0.00000   0.00000   0.00000
-14.38596   0.00000   0.00000   0.00000   0.00000   0.00000   0.00000
-14.33584   0.00000   0.00000   0.00000   0.00000   0.00000   0.00000
-14.28571   0.00000   0.00000   0.00000   0.00000   0.00000   0.00000
-14.23559   0.00000   0.00000   0.00000   0.00000   0.00000   0.00000
-14.18546   0.00000   0.00000   0.00000   0.00000   0.00000   0.00000
-14.13534   0.00000   0.00000   0.00000   0.00000   0.00000   0.00000
-14.08521   0.00000   0.00000   0.00000   0.00000   0.00000   0.00000
-14.03509   0.00000   0.00000   0.00000   0.00000   0.00000   0.00000
-13.98496   0.00000   0.00000   0.00000   0.00000   0.00000   0.00000
-13.93484   0.00000   0.00000   0.00000   0.00000   0.00000   0.00000
-13.88471   0.00000   0.00000   0.00000   0.00000   0.00000   0.00000
-13.83459   0.00000   0.00000   0.00000   0.00000   0.00000   0.00000
-13.78446   0.00000   0.00000   0.00000   0.00000   0.00000   0.00000
-13.73434   0.00000   0.00000   0.00000   0.00000   0.00000   0.00000
-13.68421   0.00000   0.00000   0.00000   0.00000   0.00000   0.00000
-13.63409   0.00000   0.00000   0.00000   0.00000   0.00000   0.00000
-13.58396   0.00000   0.00000   0.00000   0.00000   0.00000   0.00000
-13.53383   0.00000   0.00000   0.00000   0.00000   0.00000   0.00000
-13.48371   0.00000   0.00000   0.00000   0.00000   0.00000   0.00000
-13.43358   0.00000   0.00000   0.00000   0.00000   0.00000   0.00000
-13.38346   0.00000   0.00000   0.00000   0.00000   0.00000   0.00000
-13.33333   0.00000   0.00000   0.00000   0.00000   0.00000   0.00000
-13.28321   0.00000   0.00000   0.00000   0.00000   0.00000   0.00000
-13.23308   0.00000   0.00000   0.00000   0.00000   0.00000   0.00000
-13.18296   0.00000   0.00000   0.00000   0.00000   0.00000   0.00000
-13.13283   0.00000   0.00000   0.00000   0.00000   0.00000   0.00000
-13.08271   0.00000   0.00000   0.00000   0.00000   0.00000   0.00000
-13.03258   0.00000   0.00000   0.00000   0.00000   0.00000   0.00000
-12.98246   0.00000   0.00000   0.00000   0.00000   0.00000   0.00000
-12.93233   0.00000   0.00000   0.00000   0.00000   0.00000   0.00000
-12.88221   0.00000   0.00000   0.00000   0.00000   0.00000   0.00000
-12.83208   0.00000   0.00000   0.00000   0.00000   0.00000   0.00000
-12.78195   0.00000   0.00000   0.00000   0.00000   0.00000   0.00000
-12.73183   0.00000   0.00000   0.00000   0.00000   0.00000   0.00000
-12.68170   0.00000   0.00000   0.00000   0.00000   0.00000   0.00000
-12.63158   0.00000   0.00000   0.00000   0.00000   0.00000   0.00000
-12.58145   0.00000   0.00000   0.00000   0.00000   0.00000   0.00000
-12.53133   0.00000   0.00000   0.00000   0.00000   0.00000   0.00000
-12.48120   0.00000   0.00000   0.00000   0.00000   0.00000   0.00000
-12.43108   0.00000   0.00000   0.00000   0.00000   0.00000   0.00000
-12.38095   0.00000   0.00000   0.00000   0.00000   0.00000   0.00000
-12.33083   0.00000   0.00000   0.00000   0.00000   0.00000   0.00000
-12.28070   0.00000   0.00000   0.00000   0.00000   0.00000   0.00000
-12.23058   0.00000   0.00000   0.00000   0.00000   0.00000   0.00000
-12.18045   0.00000   0.00000   0.00000   0.00000   0.00000   0.00000
-12.13033   0.00000   0.00000   0.00000   0.00000   0.00000   0.00000
-12.08020   0.00000   0.00000   0.00000   0.00000   0.00000   0.00000
-12.03008   0.00000   0.00000   0.00000   0.00000   0.00000   0.00000
-11.97995   0.00000   0.00000   0.00000   0.00000   0.00000   0.00000
-11.92982   0.00000   0.00000   0.00000   0.00000   0.00000   0.00000
-11.87970   0.00000   0.00000   0.00000   0.00000   0.00000   0.00000
-11.82957   0.00000   0.00000   0.00000   0.00000   0.00000   0.00000
-11.77945   0.00000   0.00000   0.00000   0.00000   0.00000   0.00000
-11.72932   0.00000   0.00000   0.00000   0.00000   0.00000   0.00000
-11.67920   0.00000   0.00000   0.00000   0.00000   0.00000   0.00000
-11.62907   0.00000   0.00000   0.00000   0.00000   0.00000   0.00000
-11.57895   0.00000   0.00000   0.00000   0.00000   0.00000   0.00000
-11.52882   0.00000   0.00000   0.00000   0.00000   0.00000   0.00000
-11.47870   0.00000   0.00000   0.00000   0.00000   0.00000   0.00000
-11.42857   0.00000   0.00000   0.00000   0.00000   0.00000   0.00000
-11.37845   0.00000   0.00000   0.00000   0.00000   0.00000   0.00000
-11.32832   0.00000   0.00000   0.00000   0.00000   0.00000   0.00000
-11.27820   0.00000   0.00000   0.00000   0.00000   0.00000   0.00000
-11.22807   0.00000   0.00000   0.00000   0.00000   0.00000   0.00000
-11.17794   0.00000   0.00000   0.00000   0.00000   0.00000   0.00000
-11.12782   0.00000   0.00000   0.00000   0.00000   0.00000   0.00000
-11.07769   0.00000   0.00000   0.00000   0.00000   0.00000   0.00000
-11.02757   0.00000   0.00000   0.00000   0.00000   0.00000   0.00000
-10.97744   0.00000   0.00000   0.00000   0.00000   0.00000   0.00000
-10.92732   0.00381   0.00018   0.00029   0.00001   0.00023   0.00000
-10.87719   0.01290   0.00062   0.00096   0.00003   0.00078   0.00001
-10.82707   0.01791   0.00084   0.00130   0.00005   0.00106   0.00001
-10.77694   0.02147   0.00099   0.00153   0.00006   0.00124   0.00002
-10.72682   0.02580   0.00117   0.00181   0.00008   0.00147   0.00003
-10.67669   0.02973   0.00132   0.00205   0.00009   0.00166   0.00004
-10.62657   0.03220   0.00141   0.00218   0.00011   0.00177   0.00005
-10.57644   0.03488   0.00150   0.00232   0.00013   0.00188   0.00007
-10.52632   0.03728   0.00158   0.00244   0.00015   0.00198   0.00010
-10.47619   0.03917   0.00163   0.00251   0.00018   0.00204   0.00013
-10.42607   0.04130   0.00169   0.00260   0.00021   0.00212   0.00017
-10.37594   0.04367   0.00177   0.00271   0.00025   0.00222   0.00021
-10.32581   0.04761   0.00191   0.00292   0.00029   0.00239   0.00026
-10.27569   0.05174   0.00205   0.00313   0.00035   0.00256   0.00032
-10.22556   0.05587   0.00220   0.00334   0.00041   0.00273   0.00039
-10.17544   0.06007   0.00235   0.00355   0.00048   0.00291   0.00047
-10.12531   0.06415   0.00249   0.00374   0.00055   0.00308   0.00055
-10.07519   0.06797   0.00262   0.00391   0.00064   0.00322   0.00065
-10.02506   0.07180   0.00275   0.00408   0.00074   0.00337   0.00077
 -9.97494   0.07583   0.00290   0.00426   0.00085   0.00353   0.00090
 -9.92481   0.07997   0.00305   0.00445   0.00097   0.00369   0.00104
 -9.87469   0.08411   0.00320   0.00463   0.00110   0.00386   0.00121
 -9.82456   0.08811   0.00337   0.00481   0.00127   0.00402   0.00142
 -9.77444   0.09219   0.00354   0.00500   0.00145   0.00420   0.00165
 -9.72431   0.09841   0.00381   0.00532   0.00165   0.00449   0.00190
 -9.67419   0.10905   0.00428   0.00594   0.00188   0.00502   0.00218
 -9.62406   0.11907   0.00474   0.00652   0.00216   0.00553   0.00253
 -9.57393   0.12082   0.00489   0.00658   0.00247   0.00563   0.00294
 -9.52381   0.12007   0.00497   0.00651   0.00281   0.00563   0.00338
 -9.47368   0.11964   0.00511   0.00649   0.00318   0.00569   0.00388
 -9.42356   0.11877   0.00530   0.00650   0.00363   0.00577   0.00448
 -9.37343   0.11752   0.00559   0.00659   0.00420   0.00595   0.00526
 -9.32331   0.11629   0.00603   0.00680   0.00491   0.00626   0.00623
 -9.27318   0.11739   0.00690   0.00737   0.00596   0.00695   0.00769
 -9.22306   0.11651   0.00756   0.00776   0.00689   0.00746   0.00898
 -9.17293   0.11063   0.00764   0.00769   0.00753   0.00746   0.00981
 -9.12281   0.10283   0.00732   0.00731   0.00790   0.00710   0.01016
 -9.07268   0.09736   0.00719   0.00711   0.00846   0.00691   0.01070
 -9.02256   0.09240   0.00752   0.00731   0.00980   0.00710   0.01219
 -8.97243   0.08827   0.00843   0.00798   0.01226   0.00779   0.01515
 -8.92231   0.08446   0.00938   0.00874   0.01550   0.00844   0.01878
 -8.87218   0.08398   0.01112   0.01017   0.02014   0.00957   0.02406
 -8.82206   0.07906   0.01197   0.01081   0.02445   0.01033   0.02939
 -8.77193   0.06630   0.01164   0.01030   0.02608   0.01049   0.03232
 -8.72180   0.05853   0.01175   0.01036   0.02907   0.01053   0.03543
 -8.67168   0.04885   0.01289   0.01119   0.03419   0.01159   0.04160
 -8.62155   0.03893   0.01428   0.01221   0.03943   0.01250   0.04739
 -8.57143   0.02810   0.00825   0.00711   0.01819   0.00768   0.02255
 -8.52130   0.02240   0.00664   0.00585   0.01260   0.00604   0.01487
 -8.47118   0.02734   0.00759   0.00675   0.01269   0.00673   0.01454
 -8.42105   0.03925   0.01027   0.00911   0.01867   0.00914   0.02158
 -8.37093   0.04128   0.01241   0.01091   0.02505   0.01111   0.02907
 -8.32080   0.04287   0.01482   0.01295   0.03262   0.01316   0.03771
 -8.27068   0.04277   0.01680   0.01461   0.03881   0.01525   0.04477
 -8.22055   0.03321   0.01665   0.01461   0.04261   0.01518   0.04854
 -8.17043   0.02631   0.01592   0.01422   0.04653   0.01463   0.05228
 -8.12030   0.02344   0.01605   0.01465   0.05191   0.01479   0.05747
 -8.07018   0.02063   0.01633   0.01531   0.05841   0.01531   0.06378
 -8.02005   0.02011   0.01618   0.01583   0.06344   0.01576   0.06883
 -7.96992   0.01389   0.01394   0.01363   0.05571   0.01352   0.06058
 -7.91980   0.00740   0.01200   0.01173   0.04878   0.01162   0.05340
 -7.86967   0.00420   0.01001   0.00970   0.04143   0.00960   0.04553
 -7.81955   0.00213   0.00854   0.00821   0.03650   0.00811   0.04015
 -7.76942   0.00067   0.00752   0.00720   0.03341   0.00712   0.03662
 -7.71930   0.00027   0.00698   0.00675   0.03208   0.00667   0.03495
 -7.66917   0.00060   0.00704   0.00686   0.03374   0.00673   0.03660
 -7.61905   0.00139   0.00773   0.00759   0.03973   0.00742   0.04274
 -7.56892   0.00263   0.00907   0.00883   0.04813   0.00844   0.05144
 -7.51880   0.00397   0.00976   0.00951   0.05256   0.00903   0.05655
 -7.46867   0.00544   0.01058   0.01030   0.05663   0.00986   0.06137
 -7.41855   0.00657   0.01200   0.01157   0.06428   0.01094   0.06998
 -7.36842   0.00735   0.01378   0.01318   0.07561   0.01258   0.08234
 -7.31830   0.00708   0.01551   0.01500   0.08990   0.01450   0.09831
 -7.26817   0.00574   0.01581   0.01553   0.09653   0.01485   0.10454
 -7.21805   0.00544   0.01770   0.01790   0.11877   0.01694   0.12877
 -7.16792   0.00441   0.01880   0.01972   0.14131   0.01837   0.15153
 -7.11779   0.00318   0.01570   0.01595   0.11750   0.01499   0.12452
 -7.06767   0.00377   0.01483   0.01492   0.12674   0.01419   0.13281
 -7.01754   0.00437   0.01386   0.01391   0.11975   0.01335   0.12605
 -6.96742   0.00432   0.01306   0.01305   0.10622   0.01250   0.11080
 -6.91729   0.00446   0.01238   0.01232   0.09915   0.01191   0.10336
 -6.86717   0.00405   0.01169   0.01164   0.08948   0.01133   0.09352
 -6.81704   0.00378   0.01125   0.01118   0.08351   0.01089   0.08659
 -6.76692   0.00372   0.01083   0.01072   0.07947   0.01054   0.08157
 -6.71679   0.00369   0.01039   0.01029   0.07535   0.01022   0.07723
 -6.66667   0.00365   0.01012   0.01004   0.07251   0.01001   0.07411
 -6.61654   0.00350   0.01009   0.00997   0.07251   0.00997   0.07331
 -6.56642   0.00333   0.00994   0.00979   0.07187   0.00984   0.07209
 -6.51629   0.00322   0.00978   0.00962   0.07164   0.00976   0.07159
 -6.46617   0.00310   0.00965   0.00951   0.07162   0.00969   0.07148
 -6.41604   0.00294   0.00974   0.00956   0.07527   0.00976   0.07456
 -6.36591   0.00279   0.01023   0.00998   0.08728   0.01026   0.08564
 -6.31579   0.00268   0.01056   0.01025   0.09710   0.01061   0.09526
 -6.26566   0.00255   0.01200   0.01150   0.12590   0.01213   0.12322
 -6.21554   0.00229   0.01282   0.01222   0.15234   0.01290   0.15009
 -6.16541   0.00184   0.01268   0.01193   0.14629   0.01233   0.14718
 -6.11529   0.00128   0.01404   0.01294   0.14303   0.01314   0.14672
 -6.06516   0.00083   0.01587   0.01437   0.14035   0.01457   0.14759
 -6.01504   0.00059   0.01381   0.01247   0.10933   0.01262   0.11435
 -5.96491   0.00037   0.01172   0.01044   0.08339   0.01076   0.08722
 -5.91479   0.00025   0.01042   0.00932   0.06853   0.00951   0.07163
 -5.86466   0.00016   0.00906   0.00810   0.05719   0.00829   0.05953
 -5.81454   0.00011   0.00827   0.00740   0.05121   0.00754   0.05343
 -5.76441   0.00011   0.00711   0.00636   0.04058   0.00645   0.04224
 -5.71429   0.00464   0.00870   0.00796   0.04142   0.00825   0.04176
 -5.66416   0.01304   0.01234   0.01141   0.05064   0.01206   0.04818
 -5.61404   0.01653   0.01324   0.01223   0.04913   0.01297   0.04570
 -5.56391   0.02114   0.01463   0.01351   0.04973   0.01444   0.04517
 -5.51378   0.02599   0.01607   0.01479   0.05054   0.01592   0.04443
 -5.46366   0.02949   0.01681   0.01540   0.04924   0.01663   0.04251
 -5.41353   0.03574   0.01820   0.01665   0.05060   0.01807   0.04308
 -5.36341   0.04625   0.02024   0.01850   0.05463   0.02017   0.04554
 -5.31328   0.04391   0.02154   0.01950   0.05673   0.02131   0.04682
 -5.26316   0.03831   0.02295   0.02041   0.05846   0.02259   0.04764
 -5.21303   0.03519   0.02488   0.02167   0.06117   0.02390   0.04842
 -5.16291   0.03305   0.02862   0.02443   0.06932   0.02664   0.05322
 -5.11278   0.02956   0.03454   0.02896   0.08427   0.03123   0.06351
 -5.06266   0.02417   0.03962   0.03501   0.10597   0.04109   0.09115
 -5.01253   0.02142   0.04546   0.03954   0.13064   0.04613   0.11111
 -4.96241   0.02123   0.04433   0.03863   0.13140   0.04450   0.11197
 -4.91228   0.02041   0.04242   0.03694   0.12323   0.04243   0.10554
 -4.86216   0.02035   0.04118   0.03583   0.11887   0.04092   0.10214
 -4.81203   0.02087   0.04037   0.03527   0.11717   0.04012   0.10149
 -4.76190   0.02160   0.03946   0.03446   0.11469   0.03891   0.09984
 -4.71178   0.02227   0.03863   0.03385   0.11317   0.03808   0.09984
 -4.66165   0.02218   0.03778   0.03318   0.11392   0.03732   0.10156
 -4.61153   0.02240   0.03721   0.03278   0.11553   0.03660   0.10498
 -4.56140   0.02318   0.03889   0.03427   0.13177   0.03790   0.12411
 -4.51128   0.02431   0.04153   0.03669   0.16716   0.04003   0.16309
 -4.46115   0.02568   0.04695   0.04154   0.23471   0.04452   0.23631
 -4.41103   0.02588   0.04784   0.04243   0.24453   0.04539   0.24911
 -4.36090   0.02688   0.05224   0.04628   0.24878   0.04885   0.25780
 -4.31078   0.02697   0.05600   0.04886   0.19390   0.05154   0.20610
 -4.26065   0.02715   0.06183   0.05312   0.14853   0.05637   0.16220
 -4.21053   0.02658   0.03838   0.03470   0.14114   0.03617   0.14509
 -4.16040   0.02839   0.03667   0.03381   0.16501   0.03479   0.16675
 -4.11028   0.03739   0.04164   0.03934   0.21375   0.04063   0.21327
 -4.06015   0.05376   0.05279   0.05131   0.32148   0.05318   0.31789
 -4.01003   0.04294   0.04999   0.04821   0.26400   0.04996   0.26117
 -3.95990   0.02614   0.03978   0.03761   0.17373   0.03913   0.17094
 -3.90977   0.02074   0.03761   0.03523   0.14681   0.03713   0.14372
 -3.85965   0.01813   0.03753   0.03483   0.13831   0.03706   0.13482
 -3.80952   0.01609   0.03769   0.03481   0.14062   0.03729   0.13584
 -3.75940   0.01456   0.03804   0.03516   0.14515   0.03770   0.13895
 -3.70927   0.01321   0.03892   0.03590   0.14617   0.03889   0.13927
 -3.65915   0.01174   0.04153   0.03797   0.14653   0.04121   0.13884
 -3.60902   0.00935   0.04247   0.03838   0.13831   0.04198   0.13026
 -3.55890   0.00708   0.04229   0.03789   0.12118   0.04138   0.11383
 -3.50877   0.00594   0.04241   0.03769   0.10613   0.04089   0.09964
 -3.45865   0.00512   0.04271   0.03768   0.09503   0.04095   0.08910
 -3.40852   0.00436   0.04235   0.03706   0.08521   0.04031   0.07977
 -3.35840   0.00371   0.04200   0.03640   0.07686   0.03973   0.07135
 -3.30827   0.00325   0.04211   0.03633   0.06837   0.03961   0.06324
 -3.25815   0.00275   0.04261   0.03651   0.06015   0.03989   0.05532
 -3.20802   0.00218   0.04140   0.03519   0.05182   0.03859   0.04685
 -3.15789   0.00171   0.03785   0.03210   0.04411   0.03522   0.03949
 -3.10777   0.00141   0.03363   0.02861   0.03784   0.03140   0.03395
 -3.05764   0.00124   0.03056   0.02599   0.03291   0.02856   0.02938
 -3.00752   0.00111   0.02784   0.02373   0.02882   0.02603   0.02571
 -2.95739   0.00099   0.02537   0.02162   0.02526   0.02381   0.02223
 -2.90727   0.00089   0.02333   0.01983   0.02219   0.02193   0.01917
 -2.85714   0.00081   0.02151   0.01835   0.01943   0.02016   0.01695
 -2.80702   0.00073   0.01973   0.01687   0.01686   0.01843   0.01483
 -2.75689   0.00066   0.01789   0.01525   0.01480   0.01682   0.01265
 -2.70677   0.00059   0.01623   0.01377   0.01306   0.01534   0.01083
 -2.65664   0.00052   0.01483   0.01262   0.01153   0.01397   0.00971
 -2.60652   0.00045   0.01353   0.01154   0.01008   0.01271   0.00865
 -2.55639   0.00039   0.01225   0.01045   0.00870   0.01152   0.00747