  COHP#    atomMU    atomNU   distance   translation   ICOHP (at) eF 
                                                          for spin 1 
      1       Ni1       Ni1    3.05359    -1  -1   0        -0.06891 
      2       Ni1       Ni1    3.05359     0  -1   0        -0.06863 
      3       Ni1       Ni1    3.05359    -1   0   0        -0.06859 
      4       Ni1       Ni1    3.05359     1   0   0        -0.06859 
      5       Ni1       Ni1    3.05359     0   1   0        -0.06863 
      6       Ni1       Ni1    3.05359     1   1   0        -0.06891 
      7       Ni1        N3    3.68051    -2  -1   0        -0.00352 
      8       Ni1        N3    2.05469    -1  -1   0        -1.61051 
      9       Ni1        N3    3.68051     0  -1   0        -0.00336 
     10       Ni1        N3    2.05469    -1   0   0        -1.60830 
     11       Ni1        N3    2.05469     0   0   0        -1.61047 
     12       Ni1        N3    3.68051     0   1   0        -0.00354 
     13       Ni1        N4    3.68051    -1  -2   0        -0.00355 
     14       Ni1        N4    2.05469    -1  -1   0        -1.60841 
     15       Ni1        N4    2.05469     0  -1   0        -1.60625 
     16       Ni1        N4    3.68051    -1   0   0        -0.00344 
     17       Ni1        N4    2.05469     0   0   0        -1.60848 
     18       Ni1        N4    3.68051     1   0   0        -0.00354 
     19       Ni1        N5    3.95201    -1  -1   0        -0.01524 
     20       Ni1        N5    3.95201     0  -1   0        -0.01584 
     21       Ni1        N5    3.95201     0   0   0        -0.01525 
     22       Ni1        N6    3.95201    -1  -1   0        -0.01494 
     23       Ni1        N6    3.95201    -1   0   0        -0.01544 
     24       Ni1        N6    3.95201     0   0   0        -0.01493 
     25       Ni1        C7    2.89488    -1  -1   0        -0.07622 
     26       Ni1        C7    2.89488    -1   0   0        -0.07650 
     27       Ni1        C7    2.89488     0   0   0        -0.07620 
     28       Ni1        C8    2.89488    -1  -1   0        -0.07646 
     29       Ni1        C8    2.89488     0  -1   0        -0.07696 
     30       Ni1        C8    2.89488     0   0   0        -0.07646 
     31       Ni2       Ni2    3.05359    -1  -1   0        -0.06875 
     32       Ni2       Ni2    3.05359     0  -1   0        -0.06886 
     33       Ni2       Ni2    3.05359    -1   0   0        -0.06882 
     34       Ni2       Ni2    3.05359     1   0   0        -0.06882 
     35       Ni2       Ni2    3.05359     0   1   0        -0.06886 
     36       Ni2       Ni2    3.05359     1   1   0        -0.06875 
     37       Ni2        N3    3.95201    -1  -1   0        -0.01583 
     38       Ni2        N3    3.95201    -1   0   0        -0.01531 
     39       Ni2        N3    3.95201     0   0   0        -0.01578 
     40       Ni2        N4    3.95201    -1  -1  -1        -0.01536 
     41       Ni2        N4    3.95201     0  -1  -1        -0.01485 
     42       Ni2        N4    3.95201     0   0  -1        -0.01542 
     43       Ni2        N5    3.68051    -1  -2  -1        -0.00345 
     44       Ni2        N5    2.05469    -1  -1  -1        -1.60568 
     45       Ni2        N5    2.05469     0  -1  -1        -1.60774 
     46       Ni2        N5    3.68051    -1   0  -1        -0.00351 
     47       Ni2        N5    2.05469     0   0  -1        -1.60553 
     48       Ni2        N5    3.68051     1   0  -1        -0.00345 
     49       Ni2        N6    3.68051    -2  -1   0        -0.00347 
     50       Ni2        N6    2.05469    -1  -1   0        -1.60403 
     51       Ni2        N6    3.68051     0  -1   0        -0.00359 
     52       Ni2        N6    2.05469    -1   0   0        -1.60618 
     53       Ni2        N6    2.05469     0   0   0        -1.60414 
     54       Ni2        N6    3.68051     0   1   0        -0.00347 
     55       Ni2        C7    2.89488    -1  -1   0        -0.07594 
     56       Ni2        C7    2.89488    -1   0   0        -0.07557 
     57       Ni2        C7    2.89488     0   0   0        -0.07589 
     58       Ni2        C8    2.89488    -1  -1  -1        -0.07543 
     59       Ni2        C8    2.89488     0  -1  -1        -0.07495 
     60       Ni2        C8    2.89488     0   0  -1        -0.07549 
     61        N3        N3    3.05359    -1  -1   0        -0.01715 
     62        N3        N3    3.05359     0  -1   0        -0.01643 
     63        N3        N3    3.05359    -1   0   0        -0.01640 
     64        N3        N3    3.05359     1   0   0        -0.01640 
     65        N3        N3    3.05359     0   1   0        -0.01643 
     66        N3        N3    3.05359     1   1   0        -0.01715 
     67        N3        N4    2.75000     0  -1   0        -0.08372 
     68        N3        N4    2.75000     0   0   0        -0.08129 
     69        N3        N4    2.75000     1   0   0        -0.08362 
     70        N3        N6    3.93489    -1  -1   0        -0.00188 
     71        N3        N6    3.93489     0  -1   0        -0.00235 
     72        N3        N6    3.93489    -1   0   0        -0.00144 
     73        N3        N6    2.48172     0   0   0        -0.85549 
     74        N3        N6    3.93489     1   0   0        -0.00228 
     75        N3        N6    3.93489     0   1   0        -0.00145 
     76        N3        N6    3.93489     1   1   0        -0.00185 
     77        N3        C7    3.29608    -1  -1   0        -0.00422 
     78        N3        C7    3.29608     0  -1   0        -0.00457 
     79        N3        C7    3.29608    -1   0   0        -0.00357 
     80        N3        C7    1.24086     0   0   0       -17.36564 
     81        N3        C7    3.29608     1   0   0        -0.00452 
     82        N3        C7    3.29608     0   1   0        -0.00357 
     83        N3        C7    3.29608     1   1   0        -0.00419 
     84        N3        C8    3.78682     0  -1   0        -0.01259 
     85        N3        C8    3.78682     0   0   0        -0.01340 
     86        N3        C8    3.78682     1   0   0        -0.01266 
     87        N4        N4    3.05359    -1  -1   0        -0.01727 
     88        N4        N4    3.05359     0  -1   0        -0.01687 
     89        N4        N4    3.05359    -1   0   0        -0.01686 
     90        N4        N4    3.05359     1   0   0        -0.01686 
     91        N4        N4    3.05359     0   1   0        -0.01687 
     92        N4        N4    3.05359     1   1   0        -0.01727 
     93        N4        N5    3.93489    -1  -1   0        -0.00183 
     94        N4        N5    3.93489     0  -1   0        -0.00143 
     95        N4        N5    3.93489    -1   0   0        -0.00225 
     96        N4        N5    2.48172     0   0   0        -0.85485 
     97        N4        N5    3.93489     1   0   0        -0.00143 
     98        N4        N5    3.93489     0   1   0        -0.00233 
     99        N4        N5    3.93489     1   1   0        -0.00188 
    100        N4        C7    3.78682    -1   0   0        -0.01282 
    101        N4        C7    3.78682     0   0   0        -0.01338 
    102        N4        C7    3.78682     0   1   0        -0.01275 
    103        N4        C8    3.29608    -1  -1   0        -0.00423 
    104        N4        C8    3.29608     0  -1   0        -0.00359 
    105        N4        C8    3.29608    -1   0   0        -0.00464 
    106        N4        C8    1.24086     0   0   0       -17.35555 
    107        N4        C8    3.29608     1   0   0        -0.00360 
    108        N4        C8    3.29608     0   1   0        -0.00471 
    109        N4        C8    3.29608     1   1   0        -0.00428 
    110        N5        N5    3.05359    -1  -1   0        -0.01633 
    111        N5        N5    3.05359     0  -1   0        -0.01665 
    112        N5        N5    3.05359    -1   0   0        -0.01662 
    113        N5        N5    3.05359     1   0   0        -0.01662 
    114        N5        N5    3.05359     0   1   0        -0.01665 
    115        N5        N5    3.05359     1   1   0        -0.01633 
    116        N5        N6    2.75000    -1   0   1        -0.08225 
    117        N5        N6    2.75000     0   0   1        -0.08468 
    118        N5        N6    2.75000     0   1   1        -0.08216 
    119        N5        C7    3.78682    -1   0   1        -0.01310 
    120        N5        C7    3.78682     0   0   1        -0.01252 
    121        N5        C7    3.78682     0   1   1        -0.01306 
    122        N5        C8    3.29608    -1  -1   0        -0.00406 
    123        N5        C8    3.29608     0  -1   0        -0.00470 
    124        N5        C8    3.29608    -1   0   0        -0.00362 
    125        N5        C8    1.24086     0   0   0       -17.36789 
    126        N5        C8    3.29608     1   0   0        -0.00464 
    127        N5        C8    3.29608     0   1   0        -0.00360 
    128        N5        C8    3.29608     1   1   0        -0.00401 
    129        N6        N6    3.05359    -1  -1   0        -0.01651 
    130        N6        N6    3.05359     0  -1   0        -0.01720 
    131        N6        N6    3.05359    -1   0   0        -0.01720 
    132        N6        N6    3.05359     1   0   0        -0.01720 
    133        N6        N6    3.05359     0   1   0        -0.01720 
    134        N6        N6    3.05359     1   1   0        -0.01651 
    135        N6        C7    3.29608    -1  -1   0        -0.00401 
    136        N6        C7    3.29608     0  -1   0        -0.00362 
    137        N6        C7    3.29608    -1   0   0        -0.00474 
    138        N6        C7    1.24086     0   0   0       -17.34942 
    139        N6        C7    3.29608     1   0   0        -0.00363 
    140        N6        C7    3.29608     0   1   0        -0.00479 
    141        N6        C7    3.29608     1   1   0        -0.00404 
    142        N6        C8    3.78682     0  -1  -1        -0.01327 
    143        N6        C8    3.78682     0   0  -1        -0.01282 
    144        N6        C8    3.78682     1   0  -1        -0.01331 
    145        C7        C7    3.05359    -1  -1   0        -0.02591 
    146        C7        C7    3.05359     0  -1   0        -0.02603 
    147        C7        C7    3.05359    -1   0   0        -0.02609 
    148        C7        C7    3.05359     1   0   0        -0.02609 
    149        C7        C7    3.05359     0   1   0        -0.02603 
    150        C7        C7    3.05359     1   1   0        -0.02591 
    151        C8        C8    3.05359    -1  -1   0        -0.02589 
    152        C8        C8    3.05359     0  -1   0        -0.02603 
    153        C8        C8    3.05359    -1   0   0        -0.02608 
    154        C8        C8    3.05359     1   0   0        -0.02608 
    155        C8        C8    3.05359     0   1   0        -0.02603 
    156        C8        C8    3.05359     1   1   0        -0.02589 