  COHP#  fragmentAlpha   fragmentBeta   distance   translation     ICOHP (at) eF 
                                                                      for spin 1 
      1          CN2_1          CN2_1    3.05359    -1  -1   0          -0.07980 
      2          CN2_1          CN2_1    3.05359     0  -1   0          -0.07991 
      3          CN2_1          CN2_1    3.05359    -1   0   0          -0.07974 
      4          CN2_1          CN2_1    3.05359     1   0   0          -0.07974 
      5          CN2_1          CN2_1    3.05359     0   1   0          -0.07991 
      6          CN2_1          CN2_1    3.05359     1   1   0          -0.07980 
      7          CN2_1           Ni_1    3.68051    -1   0   0          -0.00471 
      8          CN2_1           Ni_1    2.05469     0   0   0          -1.70019 
      9          CN2_1           Ni_1    3.68051     1   0   0          -0.00482 
     10          CN2_1           Ni_1    2.05469     0   1   0          -1.69905 
     11          CN2_1           Ni_1    2.05469     1   1   0          -1.70011 
     12          CN2_1           Ni_1    3.68051     1   2   0          -0.00471 
     13          CN2_1           Ni_2    3.68051    -1   0   1          -0.00460 
     14          CN2_1           Ni_2    2.05469     0   0   1          -1.69644 
     15          CN2_1           Ni_2    3.68051     1   0   1          -0.00450 
     16          CN2_1           Ni_2    2.05469     0   1   1          -1.69753 
     17          CN2_1           Ni_2    2.05469     1   1   1          -1.69647 
     18          CN2_1           Ni_2    3.68051     1   2   1          -0.00458 
     19          CN2_1            N_3    2.75000    -1   0   0          -0.09674 
     20          CN2_1            N_3    2.75000     0   0   0          -0.09565 
     21          CN2_1            N_3    2.75000     0   1   0          -0.09684 
     22          CN2_1            N_6    2.75000    -1   0   1          -0.09680 
     23          CN2_1            N_6    2.75000     0   0   1          -0.09824 
     24          CN2_1            N_6    2.75000     0   1   1          -0.09676 
     25          CN2_1            C_7    3.78682    -1   0   0          -0.01526 
     26          CN2_1            C_7    3.78682     0   0   0          -0.01656 
     27          CN2_1            C_7    3.78682     0   1   0          -0.01501 
     28          CN2_1            C_7    3.78682    -1   0   1          -0.01565 
     29          CN2_1            C_7    3.78682     0   0   1          -0.01437 
     30          CN2_1            C_7    3.78682     0   1   1          -0.01549 